
     Program PWSCF v.7.2 starts on 21May2025 at 20:16:57 

     This program is part of the open-source Quantum ESPRESSO suite
     for quantum simulation of materials; please cite
         "P. Giannozzi et al., J. Phys.:Condens. Matter 21 395502 (2009);
         "P. Giannozzi et al., J. Phys.:Condens. Matter 29 465901 (2017);
         "P. Giannozzi et al., J. Chem. Phys. 152 154105 (2020);
          URL http://www.quantum-espresso.org", 
     in publications or presentations arising from this work. More details at
     http://www.quantum-espresso.org/quote

     Parallel version (MPI & OpenMP), running on       1 processor cores
     Number of MPI processes:                 1
     Threads/MPI process:                     1

     MPI processes distributed on     1 nodes
     50568 MiB available memory on the printing compute node when the environment starts

     Waiting for input...
     Reading input from standard input

     Current dimensions of program PWSCF are:
     Max number of different atomic species (ntypx) = 10
     Max number of k-points (npk) =  40000
     Max angular momentum in pseudopotentials (lmaxx) =  4
     file C.pbe-rrkjus.UPF: wavefunction(s)  2S 2P renormalized
     file H.pbe-rrkjus.UPF: wavefunction(s)  1S renormalized

     gamma-point specific algorithms are used

     Subspace diagonalization in iterative solution of the eigenvalue problem:
     a serial algorithm will be used


     G-vector sticks info
     --------------------
     sticks:   dense  smooth     PW     G-vecs:    dense   smooth      PW
     Sum        6869    2749    681               273079    69025    8635

     Using Slab Decomposition



     bravais-lattice index     =            6
     lattice parameter (alat)  =      20.7870  a.u.
     unit-cell volume          =    5715.8393 (a.u.)^3
     number of atoms/cell      =           12
     number of atomic types    =            2
     number of electrons       =        30.00
     number of Kohn-Sham states=           16
     kinetic-energy cutoff     =      20.0000  Ry
     charge density cutoff     =     200.0000  Ry
     scf convergence threshold =      1.0E-06
     mixing beta               =       0.7000
     number of iterations used =            8  plain     mixing
     Exchange-correlation=  SLA  PW   PBE  PBE
                           (   1   4   3   4   0   0   0)
     Assuming isolated system, Martyna-Tuckerman method


     celldm(1)=  20.786987  celldm(2)=   0.000000  celldm(3)=   0.636364
     celldm(4)=   0.000000  celldm(5)=   0.000000  celldm(6)=   0.000000

     crystal axes: (cart. coord. in units of alat)
               a(1) = (   1.000000   0.000000   0.000000 )  
               a(2) = (   0.000000   1.000000   0.000000 )  
               a(3) = (   0.000000   0.000000   0.636364 )  

     reciprocal axes: (cart. coord. in units 2 pi/alat)
               b(1) = (  1.000000  0.000000  0.000000 )  
               b(2) = (  0.000000  1.000000  0.000000 )  
               b(3) = (  0.000000  0.000000  1.571429 )  


     PseudoPot. # 1 for C  read from file:
     ../pseudo/C.pbe-rrkjus.UPF
     MD5 check sum: 00fb224312de0c5b6853bd333518df6f
     Pseudo is Ultrasoft, Zval =  4.0
     Generated by new atomic code, or converted to UPF format
     Using radial grid of  627 points,  4 beta functions with: 
                l(1) =   0
                l(2) =   0
                l(3) =   1
                l(4) =   1
     Q(r) pseudized with 0 coefficients 


     PseudoPot. # 2 for H  read from file:
     ../pseudo/H.pbe-rrkjus.UPF
     MD5 check sum: 7cc9d459525c9a0585f487a71c3c9563
     Pseudo is Ultrasoft, Zval =  1.0
     Generated by new atomic code, or converted to UPF format
     Using radial grid of 1061 points,  2 beta functions with: 
                l(1) =   0
                l(2) =   0
     Q(r) pseudized with 0 coefficients 


     atomic species   valence    mass     pseudopotential
        C              4.00     1.00000     C ( 1.00)
        H              1.00     1.00000     H ( 1.00)

      8 Sym. Ops., with inversion, found



   Cartesian axes

     site n.     atom                  positions (alat units)
         1           H   tau(   1) = (   0.5000000   0.7259672   0.3181818  )
         2           C   tau(   2) = (   0.5000000   0.6268372   0.3181818  )
         3           C   tau(   3) = (   0.6099035   0.5634659   0.3181818  )
         4           H   tau(   4) = (   0.6957265   0.6130086   0.3181818  )
         5           C   tau(   5) = (   0.6099035   0.4365341   0.3181818  )
         6           H   tau(   6) = (   0.6957265   0.3869914   0.3181818  )
         7           C   tau(   7) = (   0.5000000   0.3731628   0.3181818  )
         8           H   tau(   8) = (   0.5000000   0.2740328   0.3181818  )
         9           C   tau(   9) = (   0.3900965   0.4365341   0.3181818  )
        10           H   tau(  10) = (   0.3042735   0.3869914   0.3181818  )
        11           C   tau(  11) = (   0.3900965   0.5634659   0.3181818  )
        12           H   tau(  12) = (   0.3042735   0.6130086   0.3181818  )

     number of k points=     1
                       cart. coord. in units 2pi/alat
        k(    1) = (   0.0000000   0.0000000   0.0000000), wk =   2.0000000

     Dense  grid:   136540 G-vectors     FFT dimensions: (  96,  96,  60)

     Smooth grid:    34513 G-vectors     FFT dimensions: (  60,  60,  40)

     Estimated max dynamical RAM per process >     205.87 MB

     Initial potential from superposition of free atoms

     starting charge      29.4225, renormalised to      30.0000

     negative rho (up, down):  7.351E-05 0.000E+00
     Starting wfcs are   30 randomized atomic wfcs

     total cpu time spent up to now is        1.5 secs

     Self-consistent Calculation

     iteration #  1     ecut=    20.00 Ry     beta= 0.70
     Davidson diagonalization with overlap
     ethr =  1.00E-02,  avg # of iterations =  3.0

     negative rho (up, down):  2.325E-05 0.000E+00

     total cpu time spent up to now is        1.7 secs

     total energy              =     -75.13217408 Ry
     estimated scf accuracy    <       1.92237710 Ry

     iteration #  2     ecut=    20.00 Ry     beta= 0.70
     Davidson diagonalization with overlap
     ethr =  6.41E-03,  avg # of iterations =  2.0

     negative rho (up, down):  1.858E-05 0.000E+00

     total cpu time spent up to now is        2.0 secs

     total energy              =     -75.22539882 Ry
     estimated scf accuracy    <       0.08211827 Ry

     iteration #  3     ecut=    20.00 Ry     beta= 0.70
     Davidson diagonalization with overlap
     ethr =  2.74E-04,  avg # of iterations =  6.0

     negative rho (up, down):  5.570E-05 0.000E+00

     total cpu time spent up to now is        2.3 secs

     total energy              =     -75.27306459 Ry
     estimated scf accuracy    <       0.02562700 Ry

     iteration #  4     ecut=    20.00 Ry     beta= 0.70
     Davidson diagonalization with overlap
     ethr =  8.54E-05,  avg # of iterations =  3.0

     negative rho (up, down):  1.119E-04 0.000E+00

     total cpu time spent up to now is        2.5 secs

     total energy              =     -75.27894412 Ry
     estimated scf accuracy    <       0.01464535 Ry

     iteration #  5     ecut=    20.00 Ry     beta= 0.70
     Davidson diagonalization with overlap
     ethr =  4.88E-05,  avg # of iterations =  2.0

     negative rho (up, down):  1.553E-04 0.000E+00

     total cpu time spent up to now is        2.7 secs

     total energy              =     -75.27863091 Ry
     estimated scf accuracy    <       0.00191355 Ry

     iteration #  6     ecut=    20.00 Ry     beta= 0.70
     Davidson diagonalization with overlap
     ethr =  6.38E-06,  avg # of iterations =  6.0

     negative rho (up, down):  2.252E-04 0.000E+00

     total cpu time spent up to now is        3.0 secs

     total energy              =     -75.28062646 Ry
     estimated scf accuracy    <       0.00208792 Ry

     iteration #  7     ecut=    20.00 Ry     beta= 0.70
     Davidson diagonalization with overlap
     ethr =  6.38E-06,  avg # of iterations =  1.0

     negative rho (up, down):  3.203E-04 0.000E+00

     total cpu time spent up to now is        3.2 secs

     total energy              =     -75.27992876 Ry
     estimated scf accuracy    <       0.00102037 Ry

     iteration #  8     ecut=    20.00 Ry     beta= 0.70
     Davidson diagonalization with overlap
     ethr =  3.40E-06,  avg # of iterations =  3.0

     negative rho (up, down):  3.376E-04 0.000E+00

     total cpu time spent up to now is        3.5 secs

     total energy              =     -75.28032693 Ry
     estimated scf accuracy    <       0.00034093 Ry

     iteration #  9     ecut=    20.00 Ry     beta= 0.70
     Davidson diagonalization with overlap
     ethr =  1.14E-06,  avg # of iterations =  3.0

     negative rho (up, down):  3.664E-04 0.000E+00

     total cpu time spent up to now is        3.7 secs

     total energy              =     -75.28039145 Ry
     estimated scf accuracy    <       0.00000206 Ry

     iteration # 10     ecut=    20.00 Ry     beta= 0.70
     Davidson diagonalization with overlap
     ethr =  6.88E-09,  avg # of iterations =  7.0

     negative rho (up, down):  3.572E-04 0.000E+00

     total cpu time spent up to now is        4.0 secs

     total energy              =     -75.28039726 Ry
     estimated scf accuracy    <       0.00000156 Ry

     iteration # 11     ecut=    20.00 Ry     beta= 0.70
     Davidson diagonalization with overlap
     ethr =  5.20E-09,  avg # of iterations =  3.0

     negative rho (up, down):  3.554E-04 0.000E+00

     total cpu time spent up to now is        4.2 secs

     End of self-consistent calculation

          k = 0.0000 0.0000 0.0000 (  4318 PWs)   bands (ev):

   -21.1685 -18.3817 -18.3806 -14.7643 -14.7544 -12.8025 -11.1007 -10.8244
   -10.1315 -10.1240  -8.9981  -8.1363  -8.1213  -6.2696  -6.2696  -1.1442

     highest occupied, lowest unoccupied level (ev):    -6.2696   -1.1442

!    total energy              =     -75.28039766 Ry
     estimated scf accuracy    <       0.00000008 Ry

     The total energy is the sum of the following terms:
     one-electron contribution =    -518.40332837 Ry
     hartree contribution      =     262.27253441 Ry
     xc contribution           =     -25.13397296 Ry
     ewald contribution        =     205.98436926 Ry

     convergence has been achieved in  11 iterations

     Writing all to output data dir ./tmp_benz/benzene.save/

     init_run     :      1.39s CPU      1.45s WALL (       1 calls)
     electrons    :      2.18s CPU      2.80s WALL (       1 calls)

     Called by init_run:
     wfcinit      :      0.23s CPU      0.23s WALL (       1 calls)
     potinit      :      0.45s CPU      0.48s WALL (       1 calls)
     hinit0       :      0.65s CPU      0.66s WALL (       1 calls)

     Called by electrons:
     c_bands      :      0.38s CPU      0.39s WALL (      11 calls)
     sum_band     :      0.50s CPU      0.73s WALL (      11 calls)
     v_of_rho     :      0.76s CPU      0.93s WALL (      12 calls)
     newd         :      0.51s CPU      0.70s WALL (      12 calls)
     mix_rho      :      0.07s CPU      0.09s WALL (      11 calls)

     Called by c_bands:
     init_us_2    :      0.01s CPU      0.01s WALL (      23 calls)
     init_us_2:cp :      0.01s CPU      0.01s WALL (      23 calls)
     regterg      :      0.37s CPU      0.37s WALL (      11 calls)

     Called by *egterg:
     rdiaghg      :      0.01s CPU      0.01s WALL (      50 calls)
     h_psi        :      0.52s CPU      0.52s WALL (      51 calls)
     s_psi        :      0.01s CPU      0.01s WALL (      51 calls)
     g_psi        :      0.00s CPU      0.00s WALL (      39 calls)

     Called by h_psi:
     h_psi:calbec :      0.03s CPU      0.03s WALL (      51 calls)
     vloc_psi     :      0.48s CPU      0.48s WALL (      51 calls)
     add_vuspsi   :      0.01s CPU      0.01s WALL (      51 calls)

     General routines
     calbec       :      0.03s CPU      0.03s WALL (      62 calls)
     fft          :      0.82s CPU      0.82s WALL (     130 calls)
     ffts         :      0.30s CPU      0.30s WALL (      23 calls)
     fftw         :      0.41s CPU      0.41s WALL (     704 calls)
     interpolate  :      0.33s CPU      0.33s WALL (      12 calls)

     Parallel routines

     PWSCF        :      3.60s CPU      4.44s WALL


   This run was terminated on:  20:17: 1  21May2025            

=------------------------------------------------------------------------------=
   JOB DONE.
=------------------------------------------------------------------------------=
