------------------------------------------------------------
          Invoking FHI-aims ...

          When using FHI-aims, please cite the following reference:

            Volker Blum, Ralf Gehrke, Felix Hanke, Paula Havu,
            Ville Havu, Xinguo Ren, Karsten Reuter, and Matthias Scheffler,
            'Ab Initio Molecular Simulations with Numeric Atom-Centered Orbitals',
            Computer Physics Communications 180, 2175-2196 (2009)

          In addition, many other developments in FHI-aims are likely important for
          your particular application. A partial list of references is given at the end of
          this file. Thank you for giving credit to the authors of these developments.

          For any questions about FHI-aims, please visit our slack channel at

            https://fhi-aims.slack.com

          and our main development and support site at

            https://aims-git.rz-berlin.mpg.de .

          The latter site, in particular, has a wiki to collect information, as well
          as an issue tracker to log discussions, suggest improvements, and report issues
          or bugs. https://aims-git.rz-berlin.mpg.de is also the main development site
          of the project and all new and updated code versions can be obtained there.
          Please send an email to aims-coordinators@fhi-berlin.mpg.de and we will add
          you to these sites. They are for you and everyone is welcome there.

------------------------------------------------------------



  Date     :  20200805, Time     :  142015.981
  Time zero on CPU 1             :   0.134015700000000E+01  s.
  Internal wall clock time zero  :           365869215.981  s.

  FHI-aims created a unique identifier for this run for later identification
  aims_uuid : 4BE74364-3804-42D0-AF34-4A8C7B105A72

  Build configuration of the current instance of FHI-aims
  -------------------------------------------------------
  FHI-aims version      : 200804
  Commit number         : 72e1d098a
  CMake host system     : Linux-3.10.0-1127.10.1.el7.x86_64
  CMake version         : 3.16.2
  Fortran compiler      : /sw/comm/impi/compilers_and_libraries_2018.6.288/linux/mpi/intel64/bin/mpiifort (Intel) version 18.0.6.20190525
  Fortran compiler flags: -O3 -ip -fp-model precise
  C compiler            : /sw/comm/impi/compilers_and_libraries_2018.6.288/linux/mpi/intel64/bin/mpiicc (Intel) version 18.0.6.20190525
  C compiler flags      : -O3 -ip -fp-model precise -std=gnu99
  C++ compiler          : /sw/comm/impi/compilers_and_libraries_2018.6.288/linux/mpi/intel64/bin/mpiicpc (Intel) version 18.0.6.20190525
  C++ compiler flags    : -O3 -ip -fp-model precise
  ELPA2 kernel          : AVX512
  Using MPI
  Using ScaLAPACK
  Using LibXC
  Using SPGlib
  Using i-PI
  Using RLSY
  Linking against: /sw/compiler/intel/compilers_and_libraries_2018.6.288/linux/mkl/lib/intel64/libmkl_scalapack_lp64.so
                   /sw/compiler/intel/compilers_and_libraries_2018.6.288/linux/mkl/lib/intel64/libmkl_intel_lp64.so
                   /sw/compiler/intel/compilers_and_libraries_2018.6.288/linux/mkl/lib/intel64/libmkl_sequential.so
                   /sw/compiler/intel/compilers_and_libraries_2018.6.288/linux/mkl/lib/intel64/libmkl_core.so
                   /sw/compiler/intel/compilers_and_libraries_2018.6.288/linux/mkl/lib/intel64/libmkl_blacs_intelmpi_lp64.so

  Using      480 parallel tasks.
  Task        0 on host bcn1001 reporting.
  Task        1 on host bcn1001 reporting.
  Task        2 on host bcn1001 reporting.
  Task        3 on host bcn1001 reporting.
  Task        4 on host bcn1001 reporting.
  Task        5 on host bcn1001 reporting.
  Task        6 on host bcn1001 reporting.
  Task        7 on host bcn1001 reporting.
  Task        8 on host bcn1001 reporting.
  Task        9 on host bcn1001 reporting.
  Task       10 on host bcn1001 reporting.
  Task       11 on host bcn1001 reporting.
  Task       12 on host bcn1001 reporting.
  Task       13 on host bcn1001 reporting.
  Task       14 on host bcn1001 reporting.
  Task       15 on host bcn1001 reporting.
  Task       16 on host bcn1001 reporting.
  Task       17 on host bcn1001 reporting.
  Task       18 on host bcn1001 reporting.
  Task       19 on host bcn1001 reporting.
  Task       20 on host bcn1001 reporting.
  Task       21 on host bcn1001 reporting.
  Task       22 on host bcn1001 reporting.
  Task       23 on host bcn1001 reporting.
  Task       24 on host bcn1001 reporting.
  Task       25 on host bcn1001 reporting.
  Task       26 on host bcn1001 reporting.
  Task       27 on host bcn1001 reporting.
  Task       28 on host bcn1001 reporting.
  Task       29 on host bcn1001 reporting.
  Task       30 on host bcn1001 reporting.
  Task       31 on host bcn1001 reporting.
  Task       32 on host bcn1001 reporting.
  Task       33 on host bcn1001 reporting.
  Task       34 on host bcn1001 reporting.
  Task       35 on host bcn1001 reporting.
  Task       36 on host bcn1001 reporting.
  Task       37 on host bcn1001 reporting.
  Task       38 on host bcn1001 reporting.
  Task       39 on host bcn1001 reporting.
  Task       40 on host bcn1001 reporting.
  Task       41 on host bcn1001 reporting.
  Task       42 on host bcn1001 reporting.
  Task       43 on host bcn1001 reporting.
  Task       44 on host bcn1001 reporting.
  Task       45 on host bcn1001 reporting.
  Task       46 on host bcn1001 reporting.
  Task       47 on host bcn1001 reporting.
  Task       48 on host bcn1001 reporting.
  Task       49 on host bcn1001 reporting.
  Task       50 on host bcn1001 reporting.
  Task       51 on host bcn1001 reporting.
  Task       52 on host bcn1001 reporting.
  Task       53 on host bcn1001 reporting.
  Task       54 on host bcn1001 reporting.
  Task       55 on host bcn1001 reporting.
  Task       56 on host bcn1001 reporting.
  Task       57 on host bcn1001 reporting.
  Task       58 on host bcn1001 reporting.
  Task       59 on host bcn1001 reporting.
  Task       60 on host bcn1001 reporting.
  Task       61 on host bcn1001 reporting.
  Task       62 on host bcn1001 reporting.
  Task       63 on host bcn1001 reporting.
  Task       64 on host bcn1001 reporting.
  Task       65 on host bcn1001 reporting.
  Task       66 on host bcn1001 reporting.
  Task       67 on host bcn1001 reporting.
  Task       68 on host bcn1001 reporting.
  Task       69 on host bcn1001 reporting.
  Task       70 on host bcn1001 reporting.
  Task       71 on host bcn1001 reporting.
  Task       72 on host bcn1001 reporting.
  Task       73 on host bcn1001 reporting.
  Task       74 on host bcn1001 reporting.
  Task       75 on host bcn1001 reporting.
  Task       76 on host bcn1001 reporting.
  Task       77 on host bcn1001 reporting.
  Task       78 on host bcn1001 reporting.
  Task       79 on host bcn1001 reporting.
  Task       80 on host bcn1001 reporting.
  Task       81 on host bcn1001 reporting.
  Task       82 on host bcn1001 reporting.
  Task       83 on host bcn1001 reporting.
  Task       84 on host bcn1001 reporting.
  Task       85 on host bcn1001 reporting.
  Task       86 on host bcn1001 reporting.
  Task       87 on host bcn1001 reporting.
  Task       88 on host bcn1001 reporting.
  Task       89 on host bcn1001 reporting.
  Task       90 on host bcn1001 reporting.
  Task       91 on host bcn1001 reporting.
  Task       92 on host bcn1001 reporting.
  Task       93 on host bcn1001 reporting.
  Task       94 on host bcn1001 reporting.
  Task       95 on host bcn1001 reporting.
  Task       96 on host bcn1003 reporting.
  Task       97 on host bcn1003 reporting.
  Task       98 on host bcn1003 reporting.
  Task       99 on host bcn1003 reporting.
  Task      100 on host bcn1003 reporting.
  Task      101 on host bcn1003 reporting.
  Task      102 on host bcn1003 reporting.
  Task      103 on host bcn1003 reporting.
  Task      104 on host bcn1003 reporting.
  Task      105 on host bcn1003 reporting.
  Task      106 on host bcn1003 reporting.
  Task      107 on host bcn1003 reporting.
  Task      108 on host bcn1003 reporting.
  Task      109 on host bcn1003 reporting.
  Task      110 on host bcn1003 reporting.
  Task      111 on host bcn1003 reporting.
  Task      112 on host bcn1003 reporting.
  Task      113 on host bcn1003 reporting.
  Task      114 on host bcn1003 reporting.
  Task      115 on host bcn1003 reporting.
  Task      116 on host bcn1003 reporting.
  Task      117 on host bcn1003 reporting.
  Task      118 on host bcn1003 reporting.
  Task      119 on host bcn1003 reporting.
  Task      120 on host bcn1003 reporting.
  Task      121 on host bcn1003 reporting.
  Task      122 on host bcn1003 reporting.
  Task      123 on host bcn1003 reporting.
  Task      124 on host bcn1003 reporting.
  Task      125 on host bcn1003 reporting.
  Task      126 on host bcn1003 reporting.
  Task      127 on host bcn1003 reporting.
  Task      128 on host bcn1003 reporting.
  Task      129 on host bcn1003 reporting.
  Task      130 on host bcn1003 reporting.
  Task      131 on host bcn1003 reporting.
  Task      132 on host bcn1003 reporting.
  Task      133 on host bcn1003 reporting.
  Task      134 on host bcn1003 reporting.
  Task      135 on host bcn1003 reporting.
  Task      136 on host bcn1003 reporting.
  Task      137 on host bcn1003 reporting.
  Task      138 on host bcn1003 reporting.
  Task      139 on host bcn1003 reporting.
  Task      140 on host bcn1003 reporting.
  Task      141 on host bcn1003 reporting.
  Task      142 on host bcn1003 reporting.
  Task      143 on host bcn1003 reporting.
  Task      144 on host bcn1003 reporting.
  Task      145 on host bcn1003 reporting.
  Task      146 on host bcn1003 reporting.
  Task      147 on host bcn1003 reporting.
  Task      148 on host bcn1003 reporting.
  Task      149 on host bcn1003 reporting.
  Task      150 on host bcn1003 reporting.
  Task      151 on host bcn1003 reporting.
  Task      152 on host bcn1003 reporting.
  Task      153 on host bcn1003 reporting.
  Task      154 on host bcn1003 reporting.
  Task      155 on host bcn1003 reporting.
  Task      156 on host bcn1003 reporting.
  Task      157 on host bcn1003 reporting.
  Task      158 on host bcn1003 reporting.
  Task      159 on host bcn1003 reporting.
  Task      160 on host bcn1003 reporting.
  Task      161 on host bcn1003 reporting.
  Task      162 on host bcn1003 reporting.
  Task      163 on host bcn1003 reporting.
  Task      164 on host bcn1003 reporting.
  Task      165 on host bcn1003 reporting.
  Task      166 on host bcn1003 reporting.
  Task      167 on host bcn1003 reporting.
  Task      168 on host bcn1003 reporting.
  Task      169 on host bcn1003 reporting.
  Task      170 on host bcn1003 reporting.
  Task      171 on host bcn1003 reporting.
  Task      172 on host bcn1003 reporting.
  Task      173 on host bcn1003 reporting.
  Task      174 on host bcn1003 reporting.
  Task      175 on host bcn1003 reporting.
  Task      176 on host bcn1003 reporting.
  Task      177 on host bcn1003 reporting.
  Task      178 on host bcn1003 reporting.
  Task      179 on host bcn1003 reporting.
  Task      180 on host bcn1003 reporting.
  Task      181 on host bcn1003 reporting.
  Task      182 on host bcn1003 reporting.
  Task      183 on host bcn1003 reporting.
  Task      184 on host bcn1003 reporting.
  Task      185 on host bcn1003 reporting.
  Task      186 on host bcn1003 reporting.
  Task      187 on host bcn1003 reporting.
  Task      188 on host bcn1003 reporting.
  Task      189 on host bcn1003 reporting.
  Task      190 on host bcn1003 reporting.
  Task      191 on host bcn1003 reporting.
  Task      192 on host bcn1005 reporting.
  Task      193 on host bcn1005 reporting.
  Task      194 on host bcn1005 reporting.
  Task      195 on host bcn1005 reporting.
  Task      196 on host bcn1005 reporting.
  Task      197 on host bcn1005 reporting.
  Task      198 on host bcn1005 reporting.
  Task      199 on host bcn1005 reporting.
  Task      200 on host bcn1005 reporting.
  Task      201 on host bcn1005 reporting.
  Task      202 on host bcn1005 reporting.
  Task      203 on host bcn1005 reporting.
  Task      204 on host bcn1005 reporting.
  Task      205 on host bcn1005 reporting.
  Task      206 on host bcn1005 reporting.
  Task      207 on host bcn1005 reporting.
  Task      208 on host bcn1005 reporting.
  Task      209 on host bcn1005 reporting.
  Task      210 on host bcn1005 reporting.
  Task      211 on host bcn1005 reporting.
  Task      212 on host bcn1005 reporting.
  Task      213 on host bcn1005 reporting.
  Task      214 on host bcn1005 reporting.
  Task      215 on host bcn1005 reporting.
  Task      216 on host bcn1005 reporting.
  Task      217 on host bcn1005 reporting.
  Task      218 on host bcn1005 reporting.
  Task      219 on host bcn1005 reporting.
  Task      220 on host bcn1005 reporting.
  Task      221 on host bcn1005 reporting.
  Task      222 on host bcn1005 reporting.
  Task      223 on host bcn1005 reporting.
  Task      224 on host bcn1005 reporting.
  Task      225 on host bcn1005 reporting.
  Task      226 on host bcn1005 reporting.
  Task      227 on host bcn1005 reporting.
  Task      228 on host bcn1005 reporting.
  Task      229 on host bcn1005 reporting.
  Task      230 on host bcn1005 reporting.
  Task      231 on host bcn1005 reporting.
  Task      232 on host bcn1005 reporting.
  Task      233 on host bcn1005 reporting.
  Task      234 on host bcn1005 reporting.
  Task      235 on host bcn1005 reporting.
  Task      236 on host bcn1005 reporting.
  Task      237 on host bcn1005 reporting.
  Task      238 on host bcn1005 reporting.
  Task      239 on host bcn1005 reporting.
  Task      240 on host bcn1005 reporting.
  Task      241 on host bcn1005 reporting.
  Task      242 on host bcn1005 reporting.
  Task      243 on host bcn1005 reporting.
  Task      244 on host bcn1005 reporting.
  Task      245 on host bcn1005 reporting.
  Task      246 on host bcn1005 reporting.
  Task      247 on host bcn1005 reporting.
  Task      248 on host bcn1005 reporting.
  Task      249 on host bcn1005 reporting.
  Task      250 on host bcn1005 reporting.
  Task      251 on host bcn1005 reporting.
  Task      252 on host bcn1005 reporting.
  Task      253 on host bcn1005 reporting.
  Task      254 on host bcn1005 reporting.
  Task      255 on host bcn1005 reporting.
  Task      256 on host bcn1005 reporting.
  Task      257 on host bcn1005 reporting.
  Task      258 on host bcn1005 reporting.
  Task      259 on host bcn1005 reporting.
  Task      260 on host bcn1005 reporting.
  Task      261 on host bcn1005 reporting.
  Task      262 on host bcn1005 reporting.
  Task      263 on host bcn1005 reporting.
  Task      264 on host bcn1005 reporting.
  Task      265 on host bcn1005 reporting.
  Task      266 on host bcn1005 reporting.
  Task      267 on host bcn1005 reporting.
  Task      268 on host bcn1005 reporting.
  Task      269 on host bcn1005 reporting.
  Task      270 on host bcn1005 reporting.
  Task      271 on host bcn1005 reporting.
  Task      272 on host bcn1005 reporting.
  Task      273 on host bcn1005 reporting.
  Task      274 on host bcn1005 reporting.
  Task      275 on host bcn1005 reporting.
  Task      276 on host bcn1005 reporting.
  Task      277 on host bcn1005 reporting.
  Task      278 on host bcn1005 reporting.
  Task      279 on host bcn1005 reporting.
  Task      280 on host bcn1005 reporting.
  Task      281 on host bcn1005 reporting.
  Task      282 on host bcn1005 reporting.
  Task      283 on host bcn1005 reporting.
  Task      284 on host bcn1005 reporting.
  Task      285 on host bcn1005 reporting.
  Task      286 on host bcn1005 reporting.
  Task      287 on host bcn1005 reporting.
  Task      288 on host bcn1007 reporting.
  Task      289 on host bcn1007 reporting.
  Task      290 on host bcn1007 reporting.
  Task      291 on host bcn1007 reporting.
  Task      292 on host bcn1007 reporting.
  Task      293 on host bcn1007 reporting.
  Task      294 on host bcn1007 reporting.
  Task      295 on host bcn1007 reporting.
  Task      296 on host bcn1007 reporting.
  Task      297 on host bcn1007 reporting.
  Task      298 on host bcn1007 reporting.
  Task      299 on host bcn1007 reporting.
  Task      300 on host bcn1007 reporting.
  Task      301 on host bcn1007 reporting.
  Task      302 on host bcn1007 reporting.
  Task      303 on host bcn1007 reporting.
  Task      304 on host bcn1007 reporting.
  Task      305 on host bcn1007 reporting.
  Task      306 on host bcn1007 reporting.
  Task      307 on host bcn1007 reporting.
  Task      308 on host bcn1007 reporting.
  Task      309 on host bcn1007 reporting.
  Task      310 on host bcn1007 reporting.
  Task      311 on host bcn1007 reporting.
  Task      312 on host bcn1007 reporting.
  Task      313 on host bcn1007 reporting.
  Task      314 on host bcn1007 reporting.
  Task      315 on host bcn1007 reporting.
  Task      316 on host bcn1007 reporting.
  Task      317 on host bcn1007 reporting.
  Task      318 on host bcn1007 reporting.
  Task      319 on host bcn1007 reporting.
  Task      320 on host bcn1007 reporting.
  Task      321 on host bcn1007 reporting.
  Task      322 on host bcn1007 reporting.
  Task      323 on host bcn1007 reporting.
  Task      324 on host bcn1007 reporting.
  Task      325 on host bcn1007 reporting.
  Task      326 on host bcn1007 reporting.
  Task      327 on host bcn1007 reporting.
  Task      328 on host bcn1007 reporting.
  Task      329 on host bcn1007 reporting.
  Task      330 on host bcn1007 reporting.
  Task      331 on host bcn1007 reporting.
  Task      332 on host bcn1007 reporting.
  Task      333 on host bcn1007 reporting.
  Task      334 on host bcn1007 reporting.
  Task      335 on host bcn1007 reporting.
  Task      336 on host bcn1007 reporting.
  Task      337 on host bcn1007 reporting.
  Task      338 on host bcn1007 reporting.
  Task      339 on host bcn1007 reporting.
  Task      340 on host bcn1007 reporting.
  Task      341 on host bcn1007 reporting.
  Task      342 on host bcn1007 reporting.
  Task      343 on host bcn1007 reporting.
  Task      344 on host bcn1007 reporting.
  Task      345 on host bcn1007 reporting.
  Task      346 on host bcn1007 reporting.
  Task      347 on host bcn1007 reporting.
  Task      348 on host bcn1007 reporting.
  Task      349 on host bcn1007 reporting.
  Task      350 on host bcn1007 reporting.
  Task      351 on host bcn1007 reporting.
  Task      352 on host bcn1007 reporting.
  Task      353 on host bcn1007 reporting.
  Task      354 on host bcn1007 reporting.
  Task      355 on host bcn1007 reporting.
  Task      356 on host bcn1007 reporting.
  Task      357 on host bcn1007 reporting.
  Task      358 on host bcn1007 reporting.
  Task      359 on host bcn1007 reporting.
  Task      360 on host bcn1007 reporting.
  Task      361 on host bcn1007 reporting.
  Task      362 on host bcn1007 reporting.
  Task      363 on host bcn1007 reporting.
  Task      364 on host bcn1007 reporting.
  Task      365 on host bcn1007 reporting.
  Task      366 on host bcn1007 reporting.
  Task      367 on host bcn1007 reporting.
  Task      368 on host bcn1007 reporting.
  Task      369 on host bcn1007 reporting.
  Task      370 on host bcn1007 reporting.
  Task      371 on host bcn1007 reporting.
  Task      372 on host bcn1007 reporting.
  Task      373 on host bcn1007 reporting.
  Task      374 on host bcn1007 reporting.
  Task      375 on host bcn1007 reporting.
  Task      376 on host bcn1007 reporting.
  Task      377 on host bcn1007 reporting.
  Task      378 on host bcn1007 reporting.
  Task      379 on host bcn1007 reporting.
  Task      380 on host bcn1007 reporting.
  Task      381 on host bcn1007 reporting.
  Task      382 on host bcn1007 reporting.
  Task      383 on host bcn1007 reporting.
  Task      384 on host bcn1009 reporting.
  Task      385 on host bcn1009 reporting.
  Task      386 on host bcn1009 reporting.
  Task      387 on host bcn1009 reporting.
  Task      388 on host bcn1009 reporting.
  Task      389 on host bcn1009 reporting.
  Task      390 on host bcn1009 reporting.
  Task      391 on host bcn1009 reporting.
  Task      392 on host bcn1009 reporting.
  Task      393 on host bcn1009 reporting.
  Task      394 on host bcn1009 reporting.
  Task      395 on host bcn1009 reporting.
  Task      396 on host bcn1009 reporting.
  Task      397 on host bcn1009 reporting.
  Task      398 on host bcn1009 reporting.
  Task      399 on host bcn1009 reporting.
  Task      400 on host bcn1009 reporting.
  Task      401 on host bcn1009 reporting.
  Task      402 on host bcn1009 reporting.
  Task      403 on host bcn1009 reporting.
  Task      404 on host bcn1009 reporting.
  Task      405 on host bcn1009 reporting.
  Task      406 on host bcn1009 reporting.
  Task      407 on host bcn1009 reporting.
  Task      408 on host bcn1009 reporting.
  Task      409 on host bcn1009 reporting.
  Task      410 on host bcn1009 reporting.
  Task      411 on host bcn1009 reporting.
  Task      412 on host bcn1009 reporting.
  Task      413 on host bcn1009 reporting.
  Task      414 on host bcn1009 reporting.
  Task      415 on host bcn1009 reporting.
  Task      416 on host bcn1009 reporting.
  Task      417 on host bcn1009 reporting.
  Task      418 on host bcn1009 reporting.
  Task      419 on host bcn1009 reporting.
  Task      420 on host bcn1009 reporting.
  Task      421 on host bcn1009 reporting.
  Task      422 on host bcn1009 reporting.
  Task      423 on host bcn1009 reporting.
  Task      424 on host bcn1009 reporting.
  Task      425 on host bcn1009 reporting.
  Task      426 on host bcn1009 reporting.
  Task      427 on host bcn1009 reporting.
  Task      428 on host bcn1009 reporting.
  Task      429 on host bcn1009 reporting.
  Task      430 on host bcn1009 reporting.
  Task      431 on host bcn1009 reporting.
  Task      432 on host bcn1009 reporting.
  Task      433 on host bcn1009 reporting.
  Task      434 on host bcn1009 reporting.
  Task      435 on host bcn1009 reporting.
  Task      436 on host bcn1009 reporting.
  Task      437 on host bcn1009 reporting.
  Task      438 on host bcn1009 reporting.
  Task      439 on host bcn1009 reporting.
  Task      440 on host bcn1009 reporting.
  Task      441 on host bcn1009 reporting.
  Task      442 on host bcn1009 reporting.
  Task      443 on host bcn1009 reporting.
  Task      444 on host bcn1009 reporting.
  Task      445 on host bcn1009 reporting.
  Task      446 on host bcn1009 reporting.
  Task      447 on host bcn1009 reporting.
  Task      448 on host bcn1009 reporting.
  Task      449 on host bcn1009 reporting.
  Task      450 on host bcn1009 reporting.
  Task      451 on host bcn1009 reporting.
  Task      452 on host bcn1009 reporting.
  Task      453 on host bcn1009 reporting.
  Task      454 on host bcn1009 reporting.
  Task      455 on host bcn1009 reporting.
  Task      456 on host bcn1009 reporting.
  Task      457 on host bcn1009 reporting.
  Task      458 on host bcn1009 reporting.
  Task      459 on host bcn1009 reporting.
  Task      460 on host bcn1009 reporting.
  Task      461 on host bcn1009 reporting.
  Task      462 on host bcn1009 reporting.
  Task      463 on host bcn1009 reporting.
  Task      464 on host bcn1009 reporting.
  Task      465 on host bcn1009 reporting.
  Task      466 on host bcn1009 reporting.
  Task      467 on host bcn1009 reporting.
  Task      468 on host bcn1009 reporting.
  Task      469 on host bcn1009 reporting.
  Task      470 on host bcn1009 reporting.
  Task      471 on host bcn1009 reporting.
  Task      472 on host bcn1009 reporting.
  Task      473 on host bcn1009 reporting.
  Task      474 on host bcn1009 reporting.
  Task      475 on host bcn1009 reporting.
  Task      476 on host bcn1009 reporting.
  Task      477 on host bcn1009 reporting.
  Task      478 on host bcn1009 reporting.
  Task      479 on host bcn1009 reporting.

  Performing system and environment tests:
  | Environment variable OMP_NUM_THREADS correctly set to 1.
  | Maximum stacksize for task 0: unlimited
  | Maximum stacksize for task 1: unlimited
  | Maximum stacksize for task 2: unlimited
  | Maximum stacksize for task 3: unlimited
  | Maximum stacksize for task 4: unlimited
  | Maximum stacksize for task 5: unlimited
  | Maximum stacksize for task 6: unlimited
  | Maximum stacksize for task 7: unlimited
  | Maximum stacksize for task 8: unlimited
  | Maximum stacksize for task 9: unlimited
  | Maximum stacksize for task 10: unlimited
  | Maximum stacksize for task 11: unlimited
  | Maximum stacksize for task 12: unlimited
  | Maximum stacksize for task 13: unlimited
  | Maximum stacksize for task 14: unlimited
  | Maximum stacksize for task 15: unlimited
  | Maximum stacksize for task 16: unlimited
  | Maximum stacksize for task 17: unlimited
  | Maximum stacksize for task 18: unlimited
  | Maximum stacksize for task 19: unlimited
  | Maximum stacksize for task 20: unlimited
  | Maximum stacksize for task 21: unlimited
  | Maximum stacksize for task 22: unlimited
  | Maximum stacksize for task 23: unlimited
  | Maximum stacksize for task 24: unlimited
  | Maximum stacksize for task 25: unlimited
  | Maximum stacksize for task 26: unlimited
  | Maximum stacksize for task 27: unlimited
  | Maximum stacksize for task 28: unlimited
  | Maximum stacksize for task 29: unlimited
  | Maximum stacksize for task 30: unlimited
  | Maximum stacksize for task 31: unlimited
  | Maximum stacksize for task 32: unlimited
  | Maximum stacksize for task 33: unlimited
  | Maximum stacksize for task 34: unlimited
  | Maximum stacksize for task 35: unlimited
  | Maximum stacksize for task 36: unlimited
  | Maximum stacksize for task 37: unlimited
  | Maximum stacksize for task 38: unlimited
  | Maximum stacksize for task 39: unlimited
  | Maximum stacksize for task 40: unlimited
  | Maximum stacksize for task 41: unlimited
  | Maximum stacksize for task 42: unlimited
  | Maximum stacksize for task 43: unlimited
  | Maximum stacksize for task 44: unlimited
  | Maximum stacksize for task 45: unlimited
  | Maximum stacksize for task 46: unlimited
  | Maximum stacksize for task 47: unlimited
  | Maximum stacksize for task 48: unlimited
  | Maximum stacksize for task 49: unlimited
  | Maximum stacksize for task 50: unlimited
  | Maximum stacksize for task 51: unlimited
  | Maximum stacksize for task 52: unlimited
  | Maximum stacksize for task 53: unlimited
  | Maximum stacksize for task 54: unlimited
  | Maximum stacksize for task 55: unlimited
  | Maximum stacksize for task 56: unlimited
  | Maximum stacksize for task 57: unlimited
  | Maximum stacksize for task 58: unlimited
  | Maximum stacksize for task 59: unlimited
  | Maximum stacksize for task 60: unlimited
  | Maximum stacksize for task 61: unlimited
  | Maximum stacksize for task 62: unlimited
  | Maximum stacksize for task 63: unlimited
  | Maximum stacksize for task 64: unlimited
  | Maximum stacksize for task 65: unlimited
  | Maximum stacksize for task 66: unlimited
  | Maximum stacksize for task 67: unlimited
  | Maximum stacksize for task 68: unlimited
  | Maximum stacksize for task 69: unlimited
  | Maximum stacksize for task 70: unlimited
  | Maximum stacksize for task 71: unlimited
  | Maximum stacksize for task 72: unlimited
  | Maximum stacksize for task 73: unlimited
  | Maximum stacksize for task 74: unlimited
  | Maximum stacksize for task 75: unlimited
  | Maximum stacksize for task 76: unlimited
  | Maximum stacksize for task 77: unlimited
  | Maximum stacksize for task 78: unlimited
  | Maximum stacksize for task 79: unlimited
  | Maximum stacksize for task 80: unlimited
  | Maximum stacksize for task 81: unlimited
  | Maximum stacksize for task 82: unlimited
  | Maximum stacksize for task 83: unlimited
  | Maximum stacksize for task 84: unlimited
  | Maximum stacksize for task 85: unlimited
  | Maximum stacksize for task 86: unlimited
  | Maximum stacksize for task 87: unlimited
  | Maximum stacksize for task 88: unlimited
  | Maximum stacksize for task 89: unlimited
  | Maximum stacksize for task 90: unlimited
  | Maximum stacksize for task 91: unlimited
  | Maximum stacksize for task 92: unlimited
  | Maximum stacksize for task 93: unlimited
  | Maximum stacksize for task 94: unlimited
  | Maximum stacksize for task 95: unlimited
  | Maximum stacksize for task 96: unlimited
  | Maximum stacksize for task 97: unlimited
  | Maximum stacksize for task 98: unlimited
  | Maximum stacksize for task 99: unlimited
  | Maximum stacksize for task 100: unlimited
  | Maximum stacksize for task 101: unlimited
  | Maximum stacksize for task 102: unlimited
  | Maximum stacksize for task 103: unlimited
  | Maximum stacksize for task 104: unlimited
  | Maximum stacksize for task 105: unlimited
  | Maximum stacksize for task 106: unlimited
  | Maximum stacksize for task 107: unlimited
  | Maximum stacksize for task 108: unlimited
  | Maximum stacksize for task 109: unlimited
  | Maximum stacksize for task 110: unlimited
  | Maximum stacksize for task 111: unlimited
  | Maximum stacksize for task 112: unlimited
  | Maximum stacksize for task 113: unlimited
  | Maximum stacksize for task 114: unlimited
  | Maximum stacksize for task 115: unlimited
  | Maximum stacksize for task 116: unlimited
  | Maximum stacksize for task 117: unlimited
  | Maximum stacksize for task 118: unlimited
  | Maximum stacksize for task 119: unlimited
  | Maximum stacksize for task 120: unlimited
  | Maximum stacksize for task 121: unlimited
  | Maximum stacksize for task 122: unlimited
  | Maximum stacksize for task 123: unlimited
  | Maximum stacksize for task 124: unlimited
  | Maximum stacksize for task 125: unlimited
  | Maximum stacksize for task 126: unlimited
  | Maximum stacksize for task 127: unlimited
  | Maximum stacksize for task 128: unlimited
  | Maximum stacksize for task 129: unlimited
  | Maximum stacksize for task 130: unlimited
  | Maximum stacksize for task 131: unlimited
  | Maximum stacksize for task 132: unlimited
  | Maximum stacksize for task 133: unlimited
  | Maximum stacksize for task 134: unlimited
  | Maximum stacksize for task 135: unlimited
  | Maximum stacksize for task 136: unlimited
  | Maximum stacksize for task 137: unlimited
  | Maximum stacksize for task 138: unlimited
  | Maximum stacksize for task 139: unlimited
  | Maximum stacksize for task 140: unlimited
  | Maximum stacksize for task 141: unlimited
  | Maximum stacksize for task 142: unlimited
  | Maximum stacksize for task 143: unlimited
  | Maximum stacksize for task 144: unlimited
  | Maximum stacksize for task 145: unlimited
  | Maximum stacksize for task 146: unlimited
  | Maximum stacksize for task 147: unlimited
  | Maximum stacksize for task 148: unlimited
  | Maximum stacksize for task 149: unlimited
  | Maximum stacksize for task 150: unlimited
  | Maximum stacksize for task 151: unlimited
  | Maximum stacksize for task 152: unlimited
  | Maximum stacksize for task 153: unlimited
  | Maximum stacksize for task 154: unlimited
  | Maximum stacksize for task 155: unlimited
  | Maximum stacksize for task 156: unlimited
  | Maximum stacksize for task 157: unlimited
  | Maximum stacksize for task 158: unlimited
  | Maximum stacksize for task 159: unlimited
  | Maximum stacksize for task 160: unlimited
  | Maximum stacksize for task 161: unlimited
  | Maximum stacksize for task 162: unlimited
  | Maximum stacksize for task 163: unlimited
  | Maximum stacksize for task 164: unlimited
  | Maximum stacksize for task 165: unlimited
  | Maximum stacksize for task 166: unlimited
  | Maximum stacksize for task 167: unlimited
  | Maximum stacksize for task 168: unlimited
  | Maximum stacksize for task 169: unlimited
  | Maximum stacksize for task 170: unlimited
  | Maximum stacksize for task 171: unlimited
  | Maximum stacksize for task 172: unlimited
  | Maximum stacksize for task 173: unlimited
  | Maximum stacksize for task 174: unlimited
  | Maximum stacksize for task 175: unlimited
  | Maximum stacksize for task 176: unlimited
  | Maximum stacksize for task 177: unlimited
  | Maximum stacksize for task 178: unlimited
  | Maximum stacksize for task 179: unlimited
  | Maximum stacksize for task 180: unlimited
  | Maximum stacksize for task 181: unlimited
  | Maximum stacksize for task 182: unlimited
  | Maximum stacksize for task 183: unlimited
  | Maximum stacksize for task 184: unlimited
  | Maximum stacksize for task 185: unlimited
  | Maximum stacksize for task 186: unlimited
  | Maximum stacksize for task 187: unlimited
  | Maximum stacksize for task 188: unlimited
  | Maximum stacksize for task 189: unlimited
  | Maximum stacksize for task 190: unlimited
  | Maximum stacksize for task 191: unlimited
  | Maximum stacksize for task 192: unlimited
  | Maximum stacksize for task 193: unlimited
  | Maximum stacksize for task 194: unlimited
  | Maximum stacksize for task 195: unlimited
  | Maximum stacksize for task 196: unlimited
  | Maximum stacksize for task 197: unlimited
  | Maximum stacksize for task 198: unlimited
  | Maximum stacksize for task 199: unlimited
  | Maximum stacksize for task 200: unlimited
  | Maximum stacksize for task 201: unlimited
  | Maximum stacksize for task 202: unlimited
  | Maximum stacksize for task 203: unlimited
  | Maximum stacksize for task 204: unlimited
  | Maximum stacksize for task 205: unlimited
  | Maximum stacksize for task 206: unlimited
  | Maximum stacksize for task 207: unlimited
  | Maximum stacksize for task 208: unlimited
  | Maximum stacksize for task 209: unlimited
  | Maximum stacksize for task 210: unlimited
  | Maximum stacksize for task 211: unlimited
  | Maximum stacksize for task 212: unlimited
  | Maximum stacksize for task 213: unlimited
  | Maximum stacksize for task 214: unlimited
  | Maximum stacksize for task 215: unlimited
  | Maximum stacksize for task 216: unlimited
  | Maximum stacksize for task 217: unlimited
  | Maximum stacksize for task 218: unlimited
  | Maximum stacksize for task 219: unlimited
  | Maximum stacksize for task 220: unlimited
  | Maximum stacksize for task 221: unlimited
  | Maximum stacksize for task 222: unlimited
  | Maximum stacksize for task 223: unlimited
  | Maximum stacksize for task 224: unlimited
  | Maximum stacksize for task 225: unlimited
  | Maximum stacksize for task 226: unlimited
  | Maximum stacksize for task 227: unlimited
  | Maximum stacksize for task 228: unlimited
  | Maximum stacksize for task 229: unlimited
  | Maximum stacksize for task 230: unlimited
  | Maximum stacksize for task 231: unlimited
  | Maximum stacksize for task 232: unlimited
  | Maximum stacksize for task 233: unlimited
  | Maximum stacksize for task 234: unlimited
  | Maximum stacksize for task 235: unlimited
  | Maximum stacksize for task 236: unlimited
  | Maximum stacksize for task 237: unlimited
  | Maximum stacksize for task 238: unlimited
  | Maximum stacksize for task 239: unlimited
  | Maximum stacksize for task 240: unlimited
  | Maximum stacksize for task 241: unlimited
  | Maximum stacksize for task 242: unlimited
  | Maximum stacksize for task 243: unlimited
  | Maximum stacksize for task 244: unlimited
  | Maximum stacksize for task 245: unlimited
  | Maximum stacksize for task 246: unlimited
  | Maximum stacksize for task 247: unlimited
  | Maximum stacksize for task 248: unlimited
  | Maximum stacksize for task 249: unlimited
  | Maximum stacksize for task 250: unlimited
  | Maximum stacksize for task 251: unlimited
  | Maximum stacksize for task 252: unlimited
  | Maximum stacksize for task 253: unlimited
  | Maximum stacksize for task 254: unlimited
  | Maximum stacksize for task 255: unlimited
  | Maximum stacksize for task 256: unlimited
  | Maximum stacksize for task 257: unlimited
  | Maximum stacksize for task 258: unlimited
  | Maximum stacksize for task 259: unlimited
  | Maximum stacksize for task 260: unlimited
  | Maximum stacksize for task 261: unlimited
  | Maximum stacksize for task 262: unlimited
  | Maximum stacksize for task 263: unlimited
  | Maximum stacksize for task 264: unlimited
  | Maximum stacksize for task 265: unlimited
  | Maximum stacksize for task 266: unlimited
  | Maximum stacksize for task 267: unlimited
  | Maximum stacksize for task 268: unlimited
  | Maximum stacksize for task 269: unlimited
  | Maximum stacksize for task 270: unlimited
  | Maximum stacksize for task 271: unlimited
  | Maximum stacksize for task 272: unlimited
  | Maximum stacksize for task 273: unlimited
  | Maximum stacksize for task 274: unlimited
  | Maximum stacksize for task 275: unlimited
  | Maximum stacksize for task 276: unlimited
  | Maximum stacksize for task 277: unlimited
  | Maximum stacksize for task 278: unlimited
  | Maximum stacksize for task 279: unlimited
  | Maximum stacksize for task 280: unlimited
  | Maximum stacksize for task 281: unlimited
  | Maximum stacksize for task 282: unlimited
  | Maximum stacksize for task 283: unlimited
  | Maximum stacksize for task 284: unlimited
  | Maximum stacksize for task 285: unlimited
  | Maximum stacksize for task 286: unlimited
  | Maximum stacksize for task 287: unlimited
  | Maximum stacksize for task 288: unlimited
  | Maximum stacksize for task 289: unlimited
  | Maximum stacksize for task 290: unlimited
  | Maximum stacksize for task 291: unlimited
  | Maximum stacksize for task 292: unlimited
  | Maximum stacksize for task 293: unlimited
  | Maximum stacksize for task 294: unlimited
  | Maximum stacksize for task 295: unlimited
  | Maximum stacksize for task 296: unlimited
  | Maximum stacksize for task 297: unlimited
  | Maximum stacksize for task 298: unlimited
  | Maximum stacksize for task 299: unlimited
  | Maximum stacksize for task 300: unlimited
  | Maximum stacksize for task 301: unlimited
  | Maximum stacksize for task 302: unlimited
  | Maximum stacksize for task 303: unlimited
  | Maximum stacksize for task 304: unlimited
  | Maximum stacksize for task 305: unlimited
  | Maximum stacksize for task 306: unlimited
  | Maximum stacksize for task 307: unlimited
  | Maximum stacksize for task 308: unlimited
  | Maximum stacksize for task 309: unlimited
  | Maximum stacksize for task 310: unlimited
  | Maximum stacksize for task 311: unlimited
  | Maximum stacksize for task 312: unlimited
  | Maximum stacksize for task 313: unlimited
  | Maximum stacksize for task 314: unlimited
  | Maximum stacksize for task 315: unlimited
  | Maximum stacksize for task 316: unlimited
  | Maximum stacksize for task 317: unlimited
  | Maximum stacksize for task 318: unlimited
  | Maximum stacksize for task 319: unlimited
  | Maximum stacksize for task 320: unlimited
  | Maximum stacksize for task 321: unlimited
  | Maximum stacksize for task 322: unlimited
  | Maximum stacksize for task 323: unlimited
  | Maximum stacksize for task 324: unlimited
  | Maximum stacksize for task 325: unlimited
  | Maximum stacksize for task 326: unlimited
  | Maximum stacksize for task 327: unlimited
  | Maximum stacksize for task 328: unlimited
  | Maximum stacksize for task 329: unlimited
  | Maximum stacksize for task 330: unlimited
  | Maximum stacksize for task 331: unlimited
  | Maximum stacksize for task 332: unlimited
  | Maximum stacksize for task 333: unlimited
  | Maximum stacksize for task 334: unlimited
  | Maximum stacksize for task 335: unlimited
  | Maximum stacksize for task 336: unlimited
  | Maximum stacksize for task 337: unlimited
  | Maximum stacksize for task 338: unlimited
  | Maximum stacksize for task 339: unlimited
  | Maximum stacksize for task 340: unlimited
  | Maximum stacksize for task 341: unlimited
  | Maximum stacksize for task 342: unlimited
  | Maximum stacksize for task 343: unlimited
  | Maximum stacksize for task 344: unlimited
  | Maximum stacksize for task 345: unlimited
  | Maximum stacksize for task 346: unlimited
  | Maximum stacksize for task 347: unlimited
  | Maximum stacksize for task 348: unlimited
  | Maximum stacksize for task 349: unlimited
  | Maximum stacksize for task 350: unlimited
  | Maximum stacksize for task 351: unlimited
  | Maximum stacksize for task 352: unlimited
  | Maximum stacksize for task 353: unlimited
  | Maximum stacksize for task 354: unlimited
  | Maximum stacksize for task 355: unlimited
  | Maximum stacksize for task 356: unlimited
  | Maximum stacksize for task 357: unlimited
  | Maximum stacksize for task 358: unlimited
  | Maximum stacksize for task 359: unlimited
  | Maximum stacksize for task 360: unlimited
  | Maximum stacksize for task 361: unlimited
  | Maximum stacksize for task 362: unlimited
  | Maximum stacksize for task 363: unlimited
  | Maximum stacksize for task 364: unlimited
  | Maximum stacksize for task 365: unlimited
  | Maximum stacksize for task 366: unlimited
  | Maximum stacksize for task 367: unlimited
  | Maximum stacksize for task 368: unlimited
  | Maximum stacksize for task 369: unlimited
  | Maximum stacksize for task 370: unlimited
  | Maximum stacksize for task 371: unlimited
  | Maximum stacksize for task 372: unlimited
  | Maximum stacksize for task 373: unlimited
  | Maximum stacksize for task 374: unlimited
  | Maximum stacksize for task 375: unlimited
  | Maximum stacksize for task 376: unlimited
  | Maximum stacksize for task 377: unlimited
  | Maximum stacksize for task 378: unlimited
  | Maximum stacksize for task 379: unlimited
  | Maximum stacksize for task 380: unlimited
  | Maximum stacksize for task 381: unlimited
  | Maximum stacksize for task 382: unlimited
  | Maximum stacksize for task 383: unlimited
  | Maximum stacksize for task 384: unlimited
  | Maximum stacksize for task 385: unlimited
  | Maximum stacksize for task 386: unlimited
  | Maximum stacksize for task 387: unlimited
  | Maximum stacksize for task 388: unlimited
  | Maximum stacksize for task 389: unlimited
  | Maximum stacksize for task 390: unlimited
  | Maximum stacksize for task 391: unlimited
  | Maximum stacksize for task 392: unlimited
  | Maximum stacksize for task 393: unlimited
  | Maximum stacksize for task 394: unlimited
  | Maximum stacksize for task 395: unlimited
  | Maximum stacksize for task 396: unlimited
  | Maximum stacksize for task 397: unlimited
  | Maximum stacksize for task 398: unlimited
  | Maximum stacksize for task 399: unlimited
  | Maximum stacksize for task 400: unlimited
  | Maximum stacksize for task 401: unlimited
  | Maximum stacksize for task 402: unlimited
  | Maximum stacksize for task 403: unlimited
  | Maximum stacksize for task 404: unlimited
  | Maximum stacksize for task 405: unlimited
  | Maximum stacksize for task 406: unlimited
  | Maximum stacksize for task 407: unlimited
  | Maximum stacksize for task 408: unlimited
  | Maximum stacksize for task 409: unlimited
  | Maximum stacksize for task 410: unlimited
  | Maximum stacksize for task 411: unlimited
  | Maximum stacksize for task 412: unlimited
  | Maximum stacksize for task 413: unlimited
  | Maximum stacksize for task 414: unlimited
  | Maximum stacksize for task 415: unlimited
  | Maximum stacksize for task 416: unlimited
  | Maximum stacksize for task 417: unlimited
  | Maximum stacksize for task 418: unlimited
  | Maximum stacksize for task 419: unlimited
  | Maximum stacksize for task 420: unlimited
  | Maximum stacksize for task 421: unlimited
  | Maximum stacksize for task 422: unlimited
  | Maximum stacksize for task 423: unlimited
  | Maximum stacksize for task 424: unlimited
  | Maximum stacksize for task 425: unlimited
  | Maximum stacksize for task 426: unlimited
  | Maximum stacksize for task 427: unlimited
  | Maximum stacksize for task 428: unlimited
  | Maximum stacksize for task 429: unlimited
  | Maximum stacksize for task 430: unlimited
  | Maximum stacksize for task 431: unlimited
  | Maximum stacksize for task 432: unlimited
  | Maximum stacksize for task 433: unlimited
  | Maximum stacksize for task 434: unlimited
  | Maximum stacksize for task 435: unlimited
  | Maximum stacksize for task 436: unlimited
  | Maximum stacksize for task 437: unlimited
  | Maximum stacksize for task 438: unlimited
  | Maximum stacksize for task 439: unlimited
  | Maximum stacksize for task 440: unlimited
  | Maximum stacksize for task 441: unlimited
  | Maximum stacksize for task 442: unlimited
  | Maximum stacksize for task 443: unlimited
  | Maximum stacksize for task 444: unlimited
  | Maximum stacksize for task 445: unlimited
  | Maximum stacksize for task 446: unlimited
  | Maximum stacksize for task 447: unlimited
  | Maximum stacksize for task 448: unlimited
  | Maximum stacksize for task 449: unlimited
  | Maximum stacksize for task 450: unlimited
  | Maximum stacksize for task 451: unlimited
  | Maximum stacksize for task 452: unlimited
  | Maximum stacksize for task 453: unlimited
  | Maximum stacksize for task 454: unlimited
  | Maximum stacksize for task 455: unlimited
  | Maximum stacksize for task 456: unlimited
  | Maximum stacksize for task 457: unlimited
  | Maximum stacksize for task 458: unlimited
  | Maximum stacksize for task 459: unlimited
  | Maximum stacksize for task 460: unlimited
  | Maximum stacksize for task 461: unlimited
  | Maximum stacksize for task 462: unlimited
  | Maximum stacksize for task 463: unlimited
  | Maximum stacksize for task 464: unlimited
  | Maximum stacksize for task 465: unlimited
  | Maximum stacksize for task 466: unlimited
  | Maximum stacksize for task 467: unlimited
  | Maximum stacksize for task 468: unlimited
  | Maximum stacksize for task 469: unlimited
  | Maximum stacksize for task 470: unlimited
  | Maximum stacksize for task 471: unlimited
  | Maximum stacksize for task 472: unlimited
  | Maximum stacksize for task 473: unlimited
  | Maximum stacksize for task 474: unlimited
  | Maximum stacksize for task 475: unlimited
  | Maximum stacksize for task 476: unlimited
  | Maximum stacksize for task 477: unlimited
  | Maximum stacksize for task 478: unlimited
  | Maximum stacksize for task 479: unlimited
  | Current stacksize for task 0: unlimited
  | Current stacksize for task 1: unlimited
  | Current stacksize for task 2: unlimited
  | Current stacksize for task 3: unlimited
  | Current stacksize for task 4: unlimited
  | Current stacksize for task 5: unlimited
  | Current stacksize for task 6: unlimited
  | Current stacksize for task 7: unlimited
  | Current stacksize for task 8: unlimited
  | Current stacksize for task 9: unlimited
  | Current stacksize for task 10: unlimited
  | Current stacksize for task 11: unlimited
  | Current stacksize for task 12: unlimited
  | Current stacksize for task 13: unlimited
  | Current stacksize for task 14: unlimited
  | Current stacksize for task 15: unlimited
  | Current stacksize for task 16: unlimited
  | Current stacksize for task 17: unlimited
  | Current stacksize for task 18: unlimited
  | Current stacksize for task 19: unlimited
  | Current stacksize for task 20: unlimited
  | Current stacksize for task 21: unlimited
  | Current stacksize for task 22: unlimited
  | Current stacksize for task 23: unlimited
  | Current stacksize for task 24: unlimited
  | Current stacksize for task 25: unlimited
  | Current stacksize for task 26: unlimited
  | Current stacksize for task 27: unlimited
  | Current stacksize for task 28: unlimited
  | Current stacksize for task 29: unlimited
  | Current stacksize for task 30: unlimited
  | Current stacksize for task 31: unlimited
  | Current stacksize for task 32: unlimited
  | Current stacksize for task 33: unlimited
  | Current stacksize for task 34: unlimited
  | Current stacksize for task 35: unlimited
  | Current stacksize for task 36: unlimited
  | Current stacksize for task 37: unlimited
  | Current stacksize for task 38: unlimited
  | Current stacksize for task 39: unlimited
  | Current stacksize for task 40: unlimited
  | Current stacksize for task 41: unlimited
  | Current stacksize for task 42: unlimited
  | Current stacksize for task 43: unlimited
  | Current stacksize for task 44: unlimited
  | Current stacksize for task 45: unlimited
  | Current stacksize for task 46: unlimited
  | Current stacksize for task 47: unlimited
  | Current stacksize for task 48: unlimited
  | Current stacksize for task 49: unlimited
  | Current stacksize for task 50: unlimited
  | Current stacksize for task 51: unlimited
  | Current stacksize for task 52: unlimited
  | Current stacksize for task 53: unlimited
  | Current stacksize for task 54: unlimited
  | Current stacksize for task 55: unlimited
  | Current stacksize for task 56: unlimited
  | Current stacksize for task 57: unlimited
  | Current stacksize for task 58: unlimited
  | Current stacksize for task 59: unlimited
  | Current stacksize for task 60: unlimited
  | Current stacksize for task 61: unlimited
  | Current stacksize for task 62: unlimited
  | Current stacksize for task 63: unlimited
  | Current stacksize for task 64: unlimited
  | Current stacksize for task 65: unlimited
  | Current stacksize for task 66: unlimited
  | Current stacksize for task 67: unlimited
  | Current stacksize for task 68: unlimited
  | Current stacksize for task 69: unlimited
  | Current stacksize for task 70: unlimited
  | Current stacksize for task 71: unlimited
  | Current stacksize for task 72: unlimited
  | Current stacksize for task 73: unlimited
  | Current stacksize for task 74: unlimited
  | Current stacksize for task 75: unlimited
  | Current stacksize for task 76: unlimited
  | Current stacksize for task 77: unlimited
  | Current stacksize for task 78: unlimited
  | Current stacksize for task 79: unlimited
  | Current stacksize for task 80: unlimited
  | Current stacksize for task 81: unlimited
  | Current stacksize for task 82: unlimited
  | Current stacksize for task 83: unlimited
  | Current stacksize for task 84: unlimited
  | Current stacksize for task 85: unlimited
  | Current stacksize for task 86: unlimited
  | Current stacksize for task 87: unlimited
  | Current stacksize for task 88: unlimited
  | Current stacksize for task 89: unlimited
  | Current stacksize for task 90: unlimited
  | Current stacksize for task 91: unlimited
  | Current stacksize for task 92: unlimited
  | Current stacksize for task 93: unlimited
  | Current stacksize for task 94: unlimited
  | Current stacksize for task 95: unlimited
  | Current stacksize for task 96: unlimited
  | Current stacksize for task 97: unlimited
  | Current stacksize for task 98: unlimited
  | Current stacksize for task 99: unlimited
  | Current stacksize for task 100: unlimited
  | Current stacksize for task 101: unlimited
  | Current stacksize for task 102: unlimited
  | Current stacksize for task 103: unlimited
  | Current stacksize for task 104: unlimited
  | Current stacksize for task 105: unlimited
  | Current stacksize for task 106: unlimited
  | Current stacksize for task 107: unlimited
  | Current stacksize for task 108: unlimited
  | Current stacksize for task 109: unlimited
  | Current stacksize for task 110: unlimited
  | Current stacksize for task 111: unlimited
  | Current stacksize for task 112: unlimited
  | Current stacksize for task 113: unlimited
  | Current stacksize for task 114: unlimited
  | Current stacksize for task 115: unlimited
  | Current stacksize for task 116: unlimited
  | Current stacksize for task 117: unlimited
  | Current stacksize for task 118: unlimited
  | Current stacksize for task 119: unlimited
  | Current stacksize for task 120: unlimited
  | Current stacksize for task 121: unlimited
  | Current stacksize for task 122: unlimited
  | Current stacksize for task 123: unlimited
  | Current stacksize for task 124: unlimited
  | Current stacksize for task 125: unlimited
  | Current stacksize for task 126: unlimited
  | Current stacksize for task 127: unlimited
  | Current stacksize for task 128: unlimited
  | Current stacksize for task 129: unlimited
  | Current stacksize for task 130: unlimited
  | Current stacksize for task 131: unlimited
  | Current stacksize for task 132: unlimited
  | Current stacksize for task 133: unlimited
  | Current stacksize for task 134: unlimited
  | Current stacksize for task 135: unlimited
  | Current stacksize for task 136: unlimited
  | Current stacksize for task 137: unlimited
  | Current stacksize for task 138: unlimited
  | Current stacksize for task 139: unlimited
  | Current stacksize for task 140: unlimited
  | Current stacksize for task 141: unlimited
  | Current stacksize for task 142: unlimited
  | Current stacksize for task 143: unlimited
  | Current stacksize for task 144: unlimited
  | Current stacksize for task 145: unlimited
  | Current stacksize for task 146: unlimited
  | Current stacksize for task 147: unlimited
  | Current stacksize for task 148: unlimited
  | Current stacksize for task 149: unlimited
  | Current stacksize for task 150: unlimited
  | Current stacksize for task 151: unlimited
  | Current stacksize for task 152: unlimited
  | Current stacksize for task 153: unlimited
  | Current stacksize for task 154: unlimited
  | Current stacksize for task 155: unlimited
  | Current stacksize for task 156: unlimited
  | Current stacksize for task 157: unlimited
  | Current stacksize for task 158: unlimited
  | Current stacksize for task 159: unlimited
  | Current stacksize for task 160: unlimited
  | Current stacksize for task 161: unlimited
  | Current stacksize for task 162: unlimited
  | Current stacksize for task 163: unlimited
  | Current stacksize for task 164: unlimited
  | Current stacksize for task 165: unlimited
  | Current stacksize for task 166: unlimited
  | Current stacksize for task 167: unlimited
  | Current stacksize for task 168: unlimited
  | Current stacksize for task 169: unlimited
  | Current stacksize for task 170: unlimited
  | Current stacksize for task 171: unlimited
  | Current stacksize for task 172: unlimited
  | Current stacksize for task 173: unlimited
  | Current stacksize for task 174: unlimited
  | Current stacksize for task 175: unlimited
  | Current stacksize for task 176: unlimited
  | Current stacksize for task 177: unlimited
  | Current stacksize for task 178: unlimited
  | Current stacksize for task 179: unlimited
  | Current stacksize for task 180: unlimited
  | Current stacksize for task 181: unlimited
  | Current stacksize for task 182: unlimited
  | Current stacksize for task 183: unlimited
  | Current stacksize for task 184: unlimited
  | Current stacksize for task 185: unlimited
  | Current stacksize for task 186: unlimited
  | Current stacksize for task 187: unlimited
  | Current stacksize for task 188: unlimited
  | Current stacksize for task 189: unlimited
  | Current stacksize for task 190: unlimited
  | Current stacksize for task 191: unlimited
  | Current stacksize for task 192: unlimited
  | Current stacksize for task 193: unlimited
  | Current stacksize for task 194: unlimited
  | Current stacksize for task 195: unlimited
  | Current stacksize for task 196: unlimited
  | Current stacksize for task 197: unlimited
  | Current stacksize for task 198: unlimited
  | Current stacksize for task 199: unlimited
  | Current stacksize for task 200: unlimited
  | Current stacksize for task 201: unlimited
  | Current stacksize for task 202: unlimited
  | Current stacksize for task 203: unlimited
  | Current stacksize for task 204: unlimited
  | Current stacksize for task 205: unlimited
  | Current stacksize for task 206: unlimited
  | Current stacksize for task 207: unlimited
  | Current stacksize for task 208: unlimited
  | Current stacksize for task 209: unlimited
  | Current stacksize for task 210: unlimited
  | Current stacksize for task 211: unlimited
  | Current stacksize for task 212: unlimited
  | Current stacksize for task 213: unlimited
  | Current stacksize for task 214: unlimited
  | Current stacksize for task 215: unlimited
  | Current stacksize for task 216: unlimited
  | Current stacksize for task 217: unlimited
  | Current stacksize for task 218: unlimited
  | Current stacksize for task 219: unlimited
  | Current stacksize for task 220: unlimited
  | Current stacksize for task 221: unlimited
  | Current stacksize for task 222: unlimited
  | Current stacksize for task 223: unlimited
  | Current stacksize for task 224: unlimited
  | Current stacksize for task 225: unlimited
  | Current stacksize for task 226: unlimited
  | Current stacksize for task 227: unlimited
  | Current stacksize for task 228: unlimited
  | Current stacksize for task 229: unlimited
  | Current stacksize for task 230: unlimited
  | Current stacksize for task 231: unlimited
  | Current stacksize for task 232: unlimited
  | Current stacksize for task 233: unlimited
  | Current stacksize for task 234: unlimited
  | Current stacksize for task 235: unlimited
  | Current stacksize for task 236: unlimited
  | Current stacksize for task 237: unlimited
  | Current stacksize for task 238: unlimited
  | Current stacksize for task 239: unlimited
  | Current stacksize for task 240: unlimited
  | Current stacksize for task 241: unlimited
  | Current stacksize for task 242: unlimited
  | Current stacksize for task 243: unlimited
  | Current stacksize for task 244: unlimited
  | Current stacksize for task 245: unlimited
  | Current stacksize for task 246: unlimited
  | Current stacksize for task 247: unlimited
  | Current stacksize for task 248: unlimited
  | Current stacksize for task 249: unlimited
  | Current stacksize for task 250: unlimited
  | Current stacksize for task 251: unlimited
  | Current stacksize for task 252: unlimited
  | Current stacksize for task 253: unlimited
  | Current stacksize for task 254: unlimited
  | Current stacksize for task 255: unlimited
  | Current stacksize for task 256: unlimited
  | Current stacksize for task 257: unlimited
  | Current stacksize for task 258: unlimited
  | Current stacksize for task 259: unlimited
  | Current stacksize for task 260: unlimited
  | Current stacksize for task 261: unlimited
  | Current stacksize for task 262: unlimited
  | Current stacksize for task 263: unlimited
  | Current stacksize for task 264: unlimited
  | Current stacksize for task 265: unlimited
  | Current stacksize for task 266: unlimited
  | Current stacksize for task 267: unlimited
  | Current stacksize for task 268: unlimited
  | Current stacksize for task 269: unlimited
  | Current stacksize for task 270: unlimited
  | Current stacksize for task 271: unlimited
  | Current stacksize for task 272: unlimited
  | Current stacksize for task 273: unlimited
  | Current stacksize for task 274: unlimited
  | Current stacksize for task 275: unlimited
  | Current stacksize for task 276: unlimited
  | Current stacksize for task 277: unlimited
  | Current stacksize for task 278: unlimited
  | Current stacksize for task 279: unlimited
  | Current stacksize for task 280: unlimited
  | Current stacksize for task 281: unlimited
  | Current stacksize for task 282: unlimited
  | Current stacksize for task 283: unlimited
  | Current stacksize for task 284: unlimited
  | Current stacksize for task 285: unlimited
  | Current stacksize for task 286: unlimited
  | Current stacksize for task 287: unlimited
  | Current stacksize for task 288: unlimited
  | Current stacksize for task 289: unlimited
  | Current stacksize for task 290: unlimited
  | Current stacksize for task 291: unlimited
  | Current stacksize for task 292: unlimited
  | Current stacksize for task 293: unlimited
  | Current stacksize for task 294: unlimited
  | Current stacksize for task 295: unlimited
  | Current stacksize for task 296: unlimited
  | Current stacksize for task 297: unlimited
  | Current stacksize for task 298: unlimited
  | Current stacksize for task 299: unlimited
  | Current stacksize for task 300: unlimited
  | Current stacksize for task 301: unlimited
  | Current stacksize for task 302: unlimited
  | Current stacksize for task 303: unlimited
  | Current stacksize for task 304: unlimited
  | Current stacksize for task 305: unlimited
  | Current stacksize for task 306: unlimited
  | Current stacksize for task 307: unlimited
  | Current stacksize for task 308: unlimited
  | Current stacksize for task 309: unlimited
  | Current stacksize for task 310: unlimited
  | Current stacksize for task 311: unlimited
  | Current stacksize for task 312: unlimited
  | Current stacksize for task 313: unlimited
  | Current stacksize for task 314: unlimited
  | Current stacksize for task 315: unlimited
  | Current stacksize for task 316: unlimited
  | Current stacksize for task 317: unlimited
  | Current stacksize for task 318: unlimited
  | Current stacksize for task 319: unlimited
  | Current stacksize for task 320: unlimited
  | Current stacksize for task 321: unlimited
  | Current stacksize for task 322: unlimited
  | Current stacksize for task 323: unlimited
  | Current stacksize for task 324: unlimited
  | Current stacksize for task 325: unlimited
  | Current stacksize for task 326: unlimited
  | Current stacksize for task 327: unlimited
  | Current stacksize for task 328: unlimited
  | Current stacksize for task 329: unlimited
  | Current stacksize for task 330: unlimited
  | Current stacksize for task 331: unlimited
  | Current stacksize for task 332: unlimited
  | Current stacksize for task 333: unlimited
  | Current stacksize for task 334: unlimited
  | Current stacksize for task 335: unlimited
  | Current stacksize for task 336: unlimited
  | Current stacksize for task 337: unlimited
  | Current stacksize for task 338: unlimited
  | Current stacksize for task 339: unlimited
  | Current stacksize for task 340: unlimited
  | Current stacksize for task 341: unlimited
  | Current stacksize for task 342: unlimited
  | Current stacksize for task 343: unlimited
  | Current stacksize for task 344: unlimited
  | Current stacksize for task 345: unlimited
  | Current stacksize for task 346: unlimited
  | Current stacksize for task 347: unlimited
  | Current stacksize for task 348: unlimited
  | Current stacksize for task 349: unlimited
  | Current stacksize for task 350: unlimited
  | Current stacksize for task 351: unlimited
  | Current stacksize for task 352: unlimited
  | Current stacksize for task 353: unlimited
  | Current stacksize for task 354: unlimited
  | Current stacksize for task 355: unlimited
  | Current stacksize for task 356: unlimited
  | Current stacksize for task 357: unlimited
  | Current stacksize for task 358: unlimited
  | Current stacksize for task 359: unlimited
  | Current stacksize for task 360: unlimited
  | Current stacksize for task 361: unlimited
  | Current stacksize for task 362: unlimited
  | Current stacksize for task 363: unlimited
  | Current stacksize for task 364: unlimited
  | Current stacksize for task 365: unlimited
  | Current stacksize for task 366: unlimited
  | Current stacksize for task 367: unlimited
  | Current stacksize for task 368: unlimited
  | Current stacksize for task 369: unlimited
  | Current stacksize for task 370: unlimited
  | Current stacksize for task 371: unlimited
  | Current stacksize for task 372: unlimited
  | Current stacksize for task 373: unlimited
  | Current stacksize for task 374: unlimited
  | Current stacksize for task 375: unlimited
  | Current stacksize for task 376: unlimited
  | Current stacksize for task 377: unlimited
  | Current stacksize for task 378: unlimited
  | Current stacksize for task 379: unlimited
  | Current stacksize for task 380: unlimited
  | Current stacksize for task 381: unlimited
  | Current stacksize for task 382: unlimited
  | Current stacksize for task 383: unlimited
  | Current stacksize for task 384: unlimited
  | Current stacksize for task 385: unlimited
  | Current stacksize for task 386: unlimited
  | Current stacksize for task 387: unlimited
  | Current stacksize for task 388: unlimited
  | Current stacksize for task 389: unlimited
  | Current stacksize for task 390: unlimited
  | Current stacksize for task 391: unlimited
  | Current stacksize for task 392: unlimited
  | Current stacksize for task 393: unlimited
  | Current stacksize for task 394: unlimited
  | Current stacksize for task 395: unlimited
  | Current stacksize for task 396: unlimited
  | Current stacksize for task 397: unlimited
  | Current stacksize for task 398: unlimited
  | Current stacksize for task 399: unlimited
  | Current stacksize for task 400: unlimited
  | Current stacksize for task 401: unlimited
  | Current stacksize for task 402: unlimited
  | Current stacksize for task 403: unlimited
  | Current stacksize for task 404: unlimited
  | Current stacksize for task 405: unlimited
  | Current stacksize for task 406: unlimited
  | Current stacksize for task 407: unlimited
  | Current stacksize for task 408: unlimited
  | Current stacksize for task 409: unlimited
  | Current stacksize for task 410: unlimited
  | Current stacksize for task 411: unlimited
  | Current stacksize for task 412: unlimited
  | Current stacksize for task 413: unlimited
  | Current stacksize for task 414: unlimited
  | Current stacksize for task 415: unlimited
  | Current stacksize for task 416: unlimited
  | Current stacksize for task 417: unlimited
  | Current stacksize for task 418: unlimited
  | Current stacksize for task 419: unlimited
  | Current stacksize for task 420: unlimited
  | Current stacksize for task 421: unlimited
  | Current stacksize for task 422: unlimited
  | Current stacksize for task 423: unlimited
  | Current stacksize for task 424: unlimited
  | Current stacksize for task 425: unlimited
  | Current stacksize for task 426: unlimited
  | Current stacksize for task 427: unlimited
  | Current stacksize for task 428: unlimited
  | Current stacksize for task 429: unlimited
  | Current stacksize for task 430: unlimited
  | Current stacksize for task 431: unlimited
  | Current stacksize for task 432: unlimited
  | Current stacksize for task 433: unlimited
  | Current stacksize for task 434: unlimited
  | Current stacksize for task 435: unlimited
  | Current stacksize for task 436: unlimited
  | Current stacksize for task 437: unlimited
  | Current stacksize for task 438: unlimited
  | Current stacksize for task 439: unlimited
  | Current stacksize for task 440: unlimited
  | Current stacksize for task 441: unlimited
  | Current stacksize for task 442: unlimited
  | Current stacksize for task 443: unlimited
  | Current stacksize for task 444: unlimited
  | Current stacksize for task 445: unlimited
  | Current stacksize for task 446: unlimited
  | Current stacksize for task 447: unlimited
  | Current stacksize for task 448: unlimited
  | Current stacksize for task 449: unlimited
  | Current stacksize for task 450: unlimited
  | Current stacksize for task 451: unlimited
  | Current stacksize for task 452: unlimited
  | Current stacksize for task 453: unlimited
  | Current stacksize for task 454: unlimited
  | Current stacksize for task 455: unlimited
  | Current stacksize for task 456: unlimited
  | Current stacksize for task 457: unlimited
  | Current stacksize for task 458: unlimited
  | Current stacksize for task 459: unlimited
  | Current stacksize for task 460: unlimited
  | Current stacksize for task 461: unlimited
  | Current stacksize for task 462: unlimited
  | Current stacksize for task 463: unlimited
  | Current stacksize for task 464: unlimited
  | Current stacksize for task 465: unlimited
  | Current stacksize for task 466: unlimited
  | Current stacksize for task 467: unlimited
  | Current stacksize for task 468: unlimited
  | Current stacksize for task 469: unlimited
  | Current stacksize for task 470: unlimited
  | Current stacksize for task 471: unlimited
  | Current stacksize for task 472: unlimited
  | Current stacksize for task 473: unlimited
  | Current stacksize for task 474: unlimited
  | Current stacksize for task 475: unlimited
  | Current stacksize for task 476: unlimited
  | Current stacksize for task 477: unlimited
  | Current stacksize for task 478: unlimited
  | Current stacksize for task 479: unlimited
  | Checking for scalapack...
  | Testing pdtran()...
  | All pdtran() tests passed.

  Obtaining array dimensions for all initial allocations:
  
  -----------------------------------------------------------------------
  Parsing control.in (first pass over file, find array dimensions only).
  The contents of control.in will be repeated verbatim below
  unless switched off by setting 'verbatim_writeout .false.' .
  in the first line of control.in .
  -----------------------------------------------------------------------
  
  #===============================================================================
  # FHI-aims file: ./control.in
  # Created using the Atomic Simulation Environment (ASE)
  # Wed Aug  5 14:20:13 2020
  #===============================================================================
  xc                                 pw-lda
  k_grid                             2 2 2
  sc_accuracy_rho                    1e-06
  relativistic                       atomic_zora scalar
  compensate_multipole_errors        False
  output_level                       MD_light
  compute_forces                     .true.
  use_pimd_wrapper                   localhost 10006
  #===============================================================================
  
  ################################################################################
  #
  #  FHI-aims code project
  #  VB, Fritz-Haber Institut, 2009
  #
  #  Suggested "light" defaults for Si atom (to be pasted into control.in file)
  #  Be sure to double-check any results obtained with these settings for post-processing,
  #  e.g., with the "tight" defaults and larger basis sets.
  #
  ################################################################################
    species        Si
  #     global species definitions
      nucleus             14
      mass                28.0855
  #
      l_hartree           4
  #
      cut_pot             3.5          1.5  1.0
      basis_dep_cutoff    1e-4
  #
      radial_base         42 5.0
      radial_multiplier   1
      angular_grids       specified
        division   0.5866   50
        division   0.9616  110
        division   1.2249  194
        division   1.3795  302
  #      division   1.4810  434
  #      division   1.5529  590
  #      division   1.6284  770
  #      division   1.7077  974
  #      division   2.4068 1202
  #      outer_grid   974
        outer_grid 302
  ################################################################################
  #
  #  Definition of "minimal" basis
  #
  ################################################################################
  #     valence basis states
      valence      3  s   2.
      valence      3  p   2.
  #     ion occupancy
      ion_occ      3  s   1.
      ion_occ      3  p   1.
  ################################################################################
  #
  #  Suggested additional basis functions. For production calculations,
  #  uncomment them one after another (the most important basis functions are
  #  listed first).
  #
  #  Constructed for dimers: 1.75 A, 2.0 A, 2.25 A, 2.75 A, 3.75 A
  #
  ################################################################################
  #  "First tier" - improvements: -571.96 meV to -37.03 meV
       hydro 3 d 4.2
       hydro 2 p 1.4
  #     hydro 4 f 6.2
       ionic 3 s auto
  #  "Second tier" - improvements: -16.76 meV to -3.03 meV
  #     hydro 3 d 9
  #     hydro 5 g 9.4
  #     hydro 4 p 4
  #     hydro 1 s 0.65
  #  "Third tier" - improvements: -3.89 meV to -0.60 meV
  #     ionic 3 d auto
  #     hydro 3 s 2.6
  #     hydro 4 f 8.4
  #     hydro 3 d 3.4
  #     hydro 3 p 7.8
  #  "Fourth tier" - improvements: -0.33 meV to -0.11 meV
  #     hydro 2 p 1.6
  #     hydro 5 g 10.8
  #     hydro 5 f 11.2
  #     hydro 3 d 1
  #     hydro 4 s 4.5
  #  Further basis functions that fell out of the optimization - noise
  #  level... < -0.08 meV
  #     hydro 4 d 6.6
  #     hydro 5 g 16.4
  #     hydro 4 d 9
  
  -----------------------------------------------------------------------
  Completed first pass over input file control.in .
  -----------------------------------------------------------------------
  
  
  -----------------------------------------------------------------------
  Parsing geometry.in (first pass over file, find array dimensions only).
  The contents of geometry.in will be repeated verbatim below
  unless switched off by setting 'verbatim_writeout .false.' .
  in the first line of geometry.in .
  -----------------------------------------------------------------------
  
  #=======================================================
  # FHI-aims file: ./geometry.in
  # Created using the Atomic Simulation Environment (ASE)
  # Wed Aug  5 14:20:13 2020
  #=======================================================
  lattice_vector 27.0925275734099991 -0.0000000001199966 0.0000000001100009
  lattice_vector -0.0000000001199984 27.0925271957499980 0.0000000000199991
  lattice_vector 0.0000000001099993 0.0000000000199984 27.0925271960799989
  atom_frac 0.0003691054665426 0.0000000000004000 0.9999999999978999 Si
  atom_frac 0.0000000000011000 0.1000000000004000 0.0999999999979000 Si
  atom_frac 0.0000000000011000 0.2000000000004000 0.1999999999979000 Si
  atom_frac 0.0000000000011000 0.3000000000004000 0.2999999999978999 Si
  atom_frac 0.0000000000011000 0.4000000000004000 0.3999999999979000 Si
  atom_frac 0.0000000000011000 0.5000000000003999 0.4999999999978998 Si
  atom_frac 0.0000000000011000 0.6000000000003999 0.5999999999978999 Si
  atom_frac 0.0000000000011000 0.7000000000004001 0.6999999999978999 Si
  atom_frac 0.0000000000011000 0.8000000000003999 0.7999999999978998 Si
  atom_frac 0.0000000000011000 0.9000000000004001 0.8999999999979001 Si
  atom_frac 0.1000000000011000 0.0000000000004000 0.0999999999979000 Si
  atom_frac 0.1000000000011000 0.1000000000004000 0.1999999999978999 Si
  atom_frac 0.1000000000011000 0.2000000000004000 0.2999999999979000 Si
  atom_frac 0.1000000000011000 0.3000000000004000 0.3999999999979000 Si
  atom_frac 0.1000000000011000 0.4000000000004000 0.4999999999979000 Si
  atom_frac 0.1000000000011000 0.5000000000003999 0.5999999999978999 Si
  atom_frac 0.1000000000011000 0.6000000000004001 0.6999999999979000 Si
  atom_frac 0.1000000000011000 0.7000000000004001 0.7999999999978999 Si
  atom_frac 0.1000000000011000 0.8000000000003998 0.8999999999978999 Si
  atom_frac 0.1000000000010999 0.9000000000004001 0.9999999999978999 Si
  atom_frac 0.2000000000011000 0.0000000000004000 0.1999999999979000 Si
  atom_frac 0.2000000000011000 0.1000000000004000 0.2999999999978999 Si
  atom_frac 0.2000000000011000 0.2000000000004000 0.3999999999978999 Si
  atom_frac 0.2000000000011000 0.3000000000003999 0.4999999999978999 Si
  atom_frac 0.2000000000011000 0.4000000000004001 0.5999999999979000 Si
  atom_frac 0.2000000000011000 0.5000000000003999 0.6999999999978999 Si
  atom_frac 0.2000000000011000 0.6000000000004000 0.7999999999978999 Si
  atom_frac 0.2000000000011000 0.7000000000003999 0.8999999999979000 Si
  atom_frac 0.2000000000011000 0.8000000000003999 0.9999999999978999 Si
  atom_frac 0.2000000000011000 0.9000000000004001 0.0999999999979002 Si
  atom_frac 0.3000000000011000 0.0000000000004000 0.2999999999979000 Si
  atom_frac 0.3000000000011002 0.1000000000004000 0.3999999999979000 Si
  atom_frac 0.3000000000011000 0.2000000000004000 0.4999999999979000 Si
  atom_frac 0.3000000000010999 0.3000000000004001 0.5999999999978998 Si
  atom_frac 0.3000000000011001 0.4000000000004001 0.6999999999979001 Si
  atom_frac 0.3000000000010999 0.5000000000004000 0.7999999999978998 Si
  atom_frac 0.3000000000010999 0.6000000000004000 0.8999999999979000 Si
  atom_frac 0.3000000000010999 0.7000000000004001 0.9999999999978997 Si
  atom_frac 0.3000000000011000 0.8000000000003999 0.0999999999979000 Si
  atom_frac 0.3000000000011000 0.9000000000004001 0.1999999999979001 Si
  atom_frac 0.4000000000011001 0.0000000000004000 0.3999999999979000 Si
  atom_frac 0.4000000000011001 0.1000000000004000 0.4999999999979000 Si
  atom_frac 0.4000000000011000 0.2000000000004000 0.5999999999979000 Si
  atom_frac 0.4000000000011000 0.3000000000004001 0.6999999999979000 Si
  atom_frac 0.4000000000011000 0.4000000000004000 0.7999999999978999 Si
  atom_frac 0.4000000000011000 0.5000000000003998 0.8999999999978998 Si
  atom_frac 0.4000000000011000 0.6000000000004000 0.9999999999978997 Si
  atom_frac 0.4000000000011000 0.7000000000003999 0.0999999999979000 Si
  atom_frac 0.4000000000011000 0.8000000000003999 0.1999999999978999 Si
  atom_frac 0.4000000000011000 0.9000000000004001 0.2999999999979002 Si
  atom_frac 0.5000000000011000 0.0000000000004000 0.4999999999979000 Si
  atom_frac 0.5000000000011000 0.1000000000004000 0.5999999999979000 Si
  atom_frac 0.5000000000011000 0.2000000000004000 0.6999999999979001 Si
  atom_frac 0.5000000000011000 0.3000000000004000 0.7999999999979001 Si
  atom_frac 0.5000000000011001 0.4000000000004000 0.8999999999979000 Si
  atom_frac 0.5000000000011000 0.5000000000003999 0.9999999999978999 Si
  atom_frac 0.5000000000011000 0.6000000000004000 0.0999999999979000 Si
  atom_frac 0.5000000000011000 0.7000000000004001 0.1999999999979001 Si
  atom_frac 0.5000000000011000 0.8000000000003999 0.2999999999978999 Si
  atom_frac 0.5000000000011000 0.9000000000004003 0.3999999999979003 Si
  atom_frac 0.6000000000011000 0.0000000000004000 0.5999999999978999 Si
  atom_frac 0.6000000000011000 0.1000000000004000 0.6999999999978999 Si
  atom_frac 0.6000000000011001 0.2000000000004000 0.7999999999978998 Si
  atom_frac 0.6000000000011000 0.3000000000003999 0.8999999999979000 Si
  atom_frac 0.6000000000011000 0.4000000000004000 0.9999999999979000 Si
  atom_frac 0.6000000000011000 0.5000000000003999 0.0999999999979000 Si
  atom_frac 0.6000000000011000 0.6000000000004001 0.1999999999979001 Si
  atom_frac 0.6000000000011000 0.7000000000004001 0.2999999999978999 Si
  atom_frac 0.6000000000011001 0.8000000000004001 0.3999999999978999 Si
  atom_frac 0.6000000000011000 0.9000000000004003 0.4999999999979001 Si
  atom_frac 0.7000000000011001 0.0000000000004000 0.6999999999979000 Si
  atom_frac 0.7000000000011002 0.1000000000004000 0.7999999999978999 Si
  atom_frac 0.7000000000011002 0.2000000000004000 0.8999999999978998 Si
  atom_frac 0.7000000000011002 0.3000000000003999 0.9999999999978997 Si
  atom_frac 0.7000000000011001 0.4000000000004000 0.0999999999979000 Si
  atom_frac 0.7000000000011001 0.5000000000003999 0.1999999999978999 Si
  atom_frac 0.7000000000011002 0.6000000000004000 0.2999999999978998 Si
  atom_frac 0.7000000000011001 0.7000000000004001 0.3999999999979000 Si
  atom_frac 0.7000000000011002 0.8000000000004001 0.4999999999978998 Si
  atom_frac 0.7000000000011001 0.9000000000004001 0.5999999999979002 Si
  atom_frac 0.8000000000011003 0.0000000000004000 0.7999999999979001 Si
  atom_frac 0.8000000000011001 0.1000000000004000 0.8999999999979000 Si
  atom_frac 0.8000000000011003 0.2000000000004000 0.9999999999979000 Si
  atom_frac 0.8000000000011001 0.3000000000004000 0.0999999999979000 Si
  atom_frac 0.8000000000011001 0.4000000000004001 0.1999999999979001 Si
  atom_frac 0.8000000000011003 0.5000000000004000 0.2999999999978999 Si
  atom_frac 0.8000000000011003 0.6000000000004000 0.3999999999979000 Si
  atom_frac 0.8000000000011001 0.7000000000004002 0.4999999999978999 Si
  atom_frac 0.8000000000011003 0.8000000000003999 0.5999999999979000 Si
  atom_frac 0.8000000000011001 0.9000000000004001 0.6999999999979001 Si
  atom_frac 0.9000000000010999 0.0000000000004000 0.8999999999978996 Si
  atom_frac 0.9000000000010998 0.1000000000004000 0.9999999999978997 Si
  atom_frac 0.9000000000010998 0.2000000000004001 0.0999999999978998 Si
  atom_frac 0.9000000000010998 0.3000000000004001 0.1999999999978999 Si
  atom_frac 0.9000000000010998 0.4000000000004000 0.2999999999978999 Si
[...]
            atom       -12.19163740       -4.06387907       -6.77313179  Si
            atom       -12.19163740       -1.35462636       -4.06387908  Si
            atom       -12.19163740        1.35462636       -1.35462636  Si
            atom       -12.19163740        4.06387908        1.35462636  Si
            atom       -12.19163740        6.77313179        4.06387908  Si
            atom        -9.48238464        9.48238451        9.48238451  Si
            atom        -9.48238464       12.19163723       12.19163723  Si
            atom        -9.48238464      -12.19163723      -12.19163723  Si
            atom        -9.48238464       -9.48238451       -9.48238451  Si
            atom        -9.48238464       -6.77313179       -6.77313179  Si
            atom        -9.48238464       -4.06387908       -4.06387908  Si
            atom        -9.48238464       -1.35462636       -1.35462636  Si
            atom        -9.48238464        1.35462636        1.35462636  Si
            atom        -9.48238464        4.06387908        4.06387908  Si
            atom        -9.48238464        6.77313179        6.77313179  Si
            atom        -6.77313189        9.48238451       12.19163723  Si
            atom        -6.77313189       12.19163723      -12.19163723  Si
            atom        -6.77313189      -12.19163723       -9.48238451  Si
            atom        -6.77313189       -9.48238451       -6.77313179  Si
            atom        -6.77313189       -6.77313179       -4.06387908  Si
            atom        -6.77313189       -4.06387908       -1.35462636  Si
            atom        -6.77313189       -1.35462636        1.35462636  Si
            atom        -6.77313189        1.35462636        4.06387908  Si
            atom        -6.77313189        4.06387908        6.77313179  Si
            atom        -6.77313189        6.77313179        9.48238451  Si
            atom        -4.06387913        9.48238451      -12.19163723  Si
            atom        -4.06387913       12.19163723       -9.48238451  Si
            atom        -4.06387913      -12.19163723       -6.77313179  Si
            atom        -4.06387913       -9.48238451       -4.06387908  Si
            atom        -4.06387913       -6.77313179       -1.35462636  Si
            atom        -4.06387913       -4.06387908        1.35462636  Si
            atom        -4.06387913       -1.35462636        4.06387908  Si
            atom        -4.06387913        1.35462636        6.77313179  Si
            atom        -4.06387913        4.06387908        9.48238451  Si
            atom        -4.06387913        6.77313179       12.19163723  Si
            atom        -1.35462638        9.48238451       -9.48238451  Si
            atom        -1.35462638       12.19163723       -6.77313179  Si
            atom        -1.35462638      -12.19163723       -4.06387908  Si
            atom        -1.35462638       -9.48238451       -1.35462636  Si
            atom        -1.35462638       -6.77313179        1.35462636  Si
            atom        -1.35462638       -4.06387908        4.06387908  Si
            atom        -1.35462638       -1.35462636        6.77313179  Si
            atom        -1.35462638        1.35462636        9.48238451  Si
            atom        -1.35462638        4.06387908       12.19163723  Si
            atom        -1.35462638        6.77313179      -12.19163723  Si
            atom         1.35462638        9.48238451       -6.77313179  Si
            atom         1.35462638       12.19163723       -4.06387908  Si
            atom         1.35462638      -12.19163723       -1.35462636  Si
            atom         1.35462638       -9.48238451        1.35462636  Si
            atom         1.35462638       -6.77313179        4.06387908  Si
            atom         1.35462638       -4.06387908        6.77313179  Si
            atom         1.35462638       -1.35462636        9.48238451  Si
            atom         1.35462638        1.35462636       12.19163723  Si
            atom         1.35462638        4.06387908      -12.19163723  Si
            atom         1.35462638        6.77313179       -9.48238451  Si
            atom         4.06387913        9.48238451       -4.06387908  Si
            atom         4.06387913       12.19163723       -1.35462636  Si
            atom         4.06387913      -12.19163723        1.35462636  Si
            atom         4.06387913       -9.48238451        4.06387908  Si
            atom         4.06387913       -6.77313179        6.77313179  Si
            atom         4.06387913       -4.06387908        9.48238451  Si
            atom         4.06387913       -1.35462636       12.19163723  Si
            atom         4.06387913        1.35462636      -12.19163723  Si
            atom         4.06387913        4.06387907       -9.48238451  Si
            atom         4.06387913        6.77313179       -6.77313179  Si
            atom         6.77313189        9.48238451       -1.35462636  Si
            atom         6.77313189       12.19163723        1.35462636  Si
            atom         6.77313189      -12.19163723        4.06387908  Si
            atom         6.77313189       -9.48238451        6.77313179  Si
            atom         6.77313189       -6.77313179        9.48238451  Si
            atom         6.77313189       -4.06387908       12.19163723  Si
            atom         6.77313189       -1.35462636      -12.19163723  Si
            atom         6.77313189        1.35462636       -9.48238451  Si
            atom         6.77313189        4.06387907       -6.77313179  Si
            atom         6.77313189        6.77313179       -4.06387907  Si
            atom        12.19163739       12.19163723        1.35462636  Si
            atom        12.19163740      -12.19163723        4.06387908  Si
            atom        12.19163740       -9.48238451        6.77313179  Si
            atom        12.19163740       -6.77313179        9.48238451  Si
            atom        12.19163740       -4.06387908       12.19163723  Si
            atom        12.19163739       -1.35462636      -12.19163723  Si
            atom        12.19163739        1.35462636       -9.48238451  Si
            atom        12.19163739        4.06387907       -6.77313179  Si
            atom        12.19163739        6.77313179       -4.06387907  Si
            atom        12.19163739        9.48238451       -1.35462636  Si
            atom       -12.19163740       12.19163723        4.06387908  Si
            atom       -12.19163739      -12.19163723        6.77313179  Si
            atom       -12.19163739       -9.48238451        9.48238451  Si
            atom       -12.19163739       -6.77313179       12.19163723  Si
            atom       -12.19163740       -4.06387907      -12.19163723  Si
            atom       -12.19163740       -1.35462636       -9.48238451  Si
            atom       -12.19163740        1.35462636       -6.77313179  Si
            atom       -12.19163740        4.06387908       -4.06387908  Si
            atom       -12.19163740        6.77313179       -1.35462636  Si
            atom       -12.19163740        9.48238451        1.35462636  Si
            atom        -9.48238464       12.19163723        6.77313179  Si
            atom        -9.48238464      -12.19163723        9.48238451  Si
            atom        -9.48238464       -9.48238451       12.19163723  Si
            atom        -9.48238464       -6.77313179      -12.19163723  Si
            atom        -9.48238464       -4.06387908       -9.48238451  Si
            atom        -9.48238464       -1.35462636       -6.77313179  Si
            atom        -9.48238464        1.35462636       -4.06387908  Si
            atom        -9.48238464        4.06387908       -1.35462636  Si
            atom        -9.48238464        6.77313179        1.35462636  Si
            atom        -9.48238464        9.48238451        4.06387908  Si
            atom        -6.77313189       12.19163723        9.48238451  Si
            atom        -6.77313189      -12.19163723       12.19163723  Si
            atom        -6.77313189       -9.48238451      -12.19163723  Si
            atom        -6.77313189       -6.77313179       -9.48238451  Si
            atom        -6.77313189       -4.06387908       -6.77313179  Si
            atom        -6.77313189       -1.35462636       -4.06387908  Si
            atom        -6.77313189        1.35462636       -1.35462636  Si
            atom        -6.77313189        4.06387908        1.35462636  Si
            atom        -6.77313189        6.77313179        4.06387908  Si
            atom        -6.77313189        9.48238451        6.77313179  Si
            atom        -4.06387913       12.19163723       12.19163723  Si
            atom        -4.06387913      -12.19163723      -12.19163723  Si
            atom        -4.06387913       -9.48238451       -9.48238451  Si
            atom        -4.06387913       -6.77313179       -6.77313179  Si
            atom        -4.06387913       -4.06387908       -4.06387908  Si
            atom        -4.06387913       -1.35462636       -1.35462636  Si
            atom        -4.06387913        1.35462636        1.35462636  Si
            atom        -4.06387913        4.06387908        4.06387908  Si
            atom        -4.06387913        6.77313179        6.77313179  Si
            atom        -4.06387913        9.48238451        9.48238451  Si
            atom        -1.35462638       12.19163723      -12.19163723  Si
            atom        -1.35462638      -12.19163723       -9.48238451  Si
            atom        -1.35462638       -9.48238451       -6.77313179  Si
            atom        -1.35462638       -6.77313179       -4.06387908  Si
            atom        -1.35462638       -4.06387908       -1.35462636  Si
            atom        -1.35462638       -1.35462636        1.35462636  Si
            atom        -1.35462638        1.35462636        4.06387908  Si
            atom        -1.35462638        4.06387908        6.77313179  Si
            atom        -1.35462638        6.77313179        9.48238451  Si
            atom        -1.35462638        9.48238451       12.19163723  Si
            atom         1.35462638       12.19163723       -9.48238451  Si
            atom         1.35462638      -12.19163723       -6.77313179  Si
            atom         1.35462638       -9.48238451       -4.06387908  Si
            atom         1.35462638       -6.77313179       -1.35462636  Si
            atom         1.35462638       -4.06387908        1.35462636  Si
            atom         1.35462638       -1.35462636        4.06387908  Si
            atom         1.35462638        1.35462636        6.77313179  Si
            atom         1.35462638        4.06387908        9.48238451  Si
            atom         1.35462638        6.77313179       12.19163723  Si
            atom         1.35462638        9.48238451      -12.19163723  Si
            atom         4.06387913       12.19163723       -6.77313179  Si
            atom         4.06387913      -12.19163723       -4.06387908  Si
            atom         4.06387913       -9.48238451       -1.35462636  Si
            atom         4.06387913       -6.77313179        1.35462636  Si
            atom         4.06387913       -4.06387908        4.06387908  Si
            atom         4.06387913       -1.35462636        6.77313179  Si
            atom         4.06387913        1.35462636        9.48238451  Si
            atom         4.06387913        4.06387908       12.19163723  Si
            atom         4.06387913        6.77313179      -12.19163723  Si
            atom         4.06387913        9.48238451       -9.48238451  Si
            atom         6.77313189       12.19163723       -4.06387907  Si
            atom         6.77313189      -12.19163723       -1.35462636  Si
            atom         6.77313189       -9.48238451        1.35462636  Si
            atom         6.77313189       -6.77313179        4.06387908  Si
            atom         6.77313189       -4.06387908        6.77313179  Si
            atom         6.77313189       -1.35462636        9.48238451  Si
            atom         6.77313189        1.35462636       12.19163723  Si
            atom         6.77313189        4.06387907      -12.19163723  Si
            atom         6.77313189        6.77313179       -9.48238451  Si
            atom         6.77313189        9.48238451       -6.77313179  Si
            atom         9.48238464       12.19163723       -1.35462636  Si
            atom         9.48238464      -12.19163723        1.35462636  Si
            atom         9.48238464       -9.48238451        4.06387908  Si
            atom         9.48238464       -6.77313179        6.77313179  Si
            atom         9.48238464       -4.06387908        9.48238451  Si
            atom         9.48238464       -1.35462636       12.19163723  Si
            atom         9.48238464        1.35462636      -12.19163723  Si
            atom         9.48238464        4.06387907       -9.48238451  Si
            atom         9.48238464        6.77313179       -6.77313179  Si
            atom         9.48238464        9.48238451       -4.06387907  Si
 ------------------------------------------------------------------------
  @ DRIVER MODE: Message from server: STATUS      
  @ DRIVER MODE: Message from server: GETFORCE    
  @ DRIVER MODE: Returning v,forces,stress 

  Starting with the calculation of the polarization:

------------------------------------------------------------------------------
  Final output of selected total energy values:

  The following output summarizes some interesting total energy values
  at the end of a run (AFTER all relaxation, molecular dynamics, etc.).

  | Total energy of the DFT / Hartree-Fock s.c.f. calculation      :       -7874112.752482977 eV
  | Final zero-broadening corrected energy (caution - metals only) :       -7874112.752482977 eV
  | For reference only, the value of 1 Hartree used in FHI-aims is :             27.211384500 eV
  | For reference only, the overall average (free atom contribution
  | + realspace contribution) of the electrostatic potential after
  | s.c.f. convergence is                                          :            -12.947673429 eV

  Before relying on these values, please be sure to understand exactly which
  total energy value is referred to by a given number. Different objects may
  all carry the same name 'total energy'. Definitions:

  Total energy of the DFT / Hartree-Fock s.c.f. calculation:
  | Note that this energy does not include ANY quantities calculated after the
  | s.c.f. cycle, in particular not ANY RPA, MP2, etc. many-body perturbation terms.

  Final zero-broadening corrected energy:
  | For metallic systems only, a broadening of the occupation numbers at the Fermi
  | level can be extrapolated back to zero broadening by an electron-gas inspired
  | formula. For all systems that are not real metals, this value can be
  | meaningless and should be avoided.

------------------------------------------------------------------------------
  Methods described in the following list of references were used in this FHI-aims run.
  If you publish the results, please make sure to cite these reference if they apply.
  FHI-aims is an academic code, and for our developers (often, Ph.D. students
  and postdocs), scientific credit in the community is essential.
  Thank you for helping us!

  For any use of FHI-aims, please cite:

    Volker Blum, Ralf Gehrke, Felix Hanke, Paula Havu, Ville Havu,
    Xinguo Ren, Karsten Reuter, and Matthias Scheffler
    'Ab initio molecular simulations with numeric atom-centered orbitals'
    Computer Physics Communications 180, 2175-2196 (2009)
    http://dx.doi.org/10.1016/j.cpc.2009.06.022


  The provided symmetry information was generated with SPGlib:

    Atsushi Togo, Yusuke Seto, Dimitar Pashov
    SPGlib 1.7.3 obtained from http://spglib.sourceforge.net
    Copyright (C) 2008 Atsushi Togo


  The ELSI infrastructure was used in your run to solve the Kohn-Sham electronic structure.
  Please check out http://elsi-interchange.org to learn more.
  If scalability is important for your project, please acknowledge ELSI by citing:

    V. W-z. Yu, F. Corsetti, A. Garcia, W. P. Huhn, M. Jacquelin, W. Jia,
    B. Lange, L. Lin, J. Lu, W. Mi, A. Seifitokaldani, A. Vazquez-Mayagoitia,
    C. Yang, H. Yang, and V. Blum
    'ELSI: A unified software interface for Kohn-Sham electronic structure solvers'
    Computer Physics Communications 222, 267-285 (2018).
    http://dx.doi.org/10.1016/j.cpc.2017.09.007


  For the real-space grid partitioning and parallelization used in this calculation, please cite:

    Ville Havu, Volker Blum, Paula Havu, and Matthias Scheffler,
    'Efficient O(N) integration for all-electron electronic structure calculation'
    'using numerically tabulated basis functions'
    Journal of Computational Physics 228, 8367-8379 (2009).
    http://dx.doi.org/10.1016/j.jcp.2009.08.008

  Of course, there are many other important community references, e.g., those cited in the
  above references. Our list is limited to references that describe implementations in the
  FHI-aims code. The reason is purely practical (length of this list) - please credit others as well.

------------------------------------------------------------
          Leaving FHI-aims.
          Date     :  20200805, Time     :  144527.034

          Computational steps:
          | Number of self-consistency cycles          :           28
          | Number of SCF (re)initializations          :            1

          Detailed time accounting                     :  max(cpu_time)    wall_clock(cpu1)
          | Total time                                 :     1507.338 s        1511.053 s
          | Preparation time                           :        0.137 s           1.700 s
          | Boundary condition initalization           :        8.091 s           8.109 s
          | Grid partitioning                          :        1.693 s           1.697 s
          | Preloading free-atom quantities on grid    :        2.710 s           2.712 s
          | Free-atom superposition energy             :        0.441 s           0.442 s
          | Total time for integrations                :       49.185 s          49.266 s
          | Total time for solution of K.-S. equations :     1135.300 s        1137.351 s
          | Total time for density & force components  :      142.453 s         142.219 s
          | Total time for mixing & preconditioning    :       28.610 s          28.662 s
          | Total time for Hartree multipole update    :        3.197 s           3.203 s
          | Total time for Hartree multipole sum       :      129.020 s         129.324 s
          | Total time for total energy evaluation     :        0.182 s           0.265 s
          | Total time for scaled ZORA corrections     :        0.000 s           0.000 s

          Partial memory accounting:
          | Residual value for overall tracked memory usage across tasks:     0.000000 MB (should be 0.000000 MB)
          | Peak values for overall tracked memory usage:
          |   Minimum:     2028.321 MB (on task  33 after allocating temp_ham_ovlp)
          |   Maximum:     2030.079 MB (on task   0 after allocating temp_ham_ovlp)
          |   Average:     2029.198 MB
          | Largest tracked array allocation:
          |   Minimum:     1373.291 MB (KS_eigenvector on task   0)
          |   Maximum:     1373.291 MB (KS_eigenvector on task   0)
          |   Average:     1373.291 MB
          Note:  These values currently only include a subset of arrays which are explicitly tracked.
          The "true" memory usage will be greater.

          Have a nice day.
------------------------------------------------------------
