nqpoint: 500    
npath: 10     
segment_nqpoint:
- 50
- 50
- 50
- 50
- 50
- 50
- 50
- 50
- 50
- 50
labels:
- [ 'G', 'X' ]
- [ 'X', 'W' ]
- [ 'W', 'K' ]
- [ 'K', 'G' ]
- [ 'G', 'L' ]
- [ 'L', 'U' ]
- [ 'U', 'W' ]
- [ 'W', 'L' ]
- [ 'L', 'K|U' ]
- [ 'K|U', 'X' ]
reciprocal_lattice:
- [  -0.18429553,   0.18429553,   0.18429553 ] # a*
- [   0.18429553,  -0.18429553,   0.18429553 ] # b*
- [   0.18429553,   0.18429553,  -0.18429553 ] # c*
natom: 2      
lattice:
- [     0.000000000000000,     2.713033762910000,     2.713033762910000 ] # a
- [     2.713033762910000,     0.000000000000000,     2.713033762910000 ] # b
- [     2.713033762910000,     2.713033762910000,     0.000000000000000 ] # c
points:
- symbol: Si # 1
  coordinates: [  0.000000000000000,  0.000000000000000,  0.000000000000000 ]
  mass: 28.085000
  magnetic_moment: 0.00000000
- symbol: Si # 2
  coordinates: [  0.250000000000000,  0.250000000000000,  0.250000000000000 ]
  mass: 28.085000
  magnetic_moment: 0.00000000

phonon:
- q-position: [    0.0000000,    0.0000000,    0.0000000 ]
  distance:    0.0000000
  band:
  - # 1
    frequency:   -0.0000004942
    eigenvector:
    - # atom 1
      - [ -0.70710678118655,  0.00000000000000 ]
      - [  0.00000000000000,  0.00000000000000 ]
      - [ -0.00000000000000,  0.00000000000000 ]
    - # atom 2
      - [ -0.70710678118655,  0.00000000000000 ]
      - [  0.00000000000000,  0.00000000000000 ]
      - [  0.00000000000000,  0.00000000000000 ]
  - # 2
    frequency:   -0.0000004942
    eigenvector:
    - # atom 1
      - [ -0.00000000000000,  0.00000000000000 ]
      - [ -0.70710678118655,  0.00000000000000 ]
      - [ -0.00000000000000,  0.00000000000000 ]
    - # atom 2
      - [  0.00000000000000,  0.00000000000000 ]
      - [ -0.70710678118655,  0.00000000000000 ]
      - [  0.00000000000000,  0.00000000000000 ]
  - # 3
    frequency:   -0.0000004873
    eigenvector:
    - # atom 1
      - [  0.00000000000000,  0.00000000000000 ]
      - [ -0.00000000000000,  0.00000000000000 ]
      - [  0.70710678118655,  0.00000000000000 ]
    - # atom 2
      - [ -0.00000000000000,  0.00000000000000 ]
      - [  0.00000000000000,  0.00000000000000 ]
      - [  0.70710678118655,  0.00000000000000 ]
  - # 4
    frequency:   15.2502188529
    eigenvector:
    - # atom 1
      - [  0.00000000000000,  0.00000000000000 ]
      - [ -0.00000000000000,  0.00000000000000 ]
      - [  0.70710678118655,  0.00000000000000 ]
    - # atom 2
      - [ -0.00000000000000,  0.00000000000000 ]
      - [  0.00000000000000,  0.00000000000000 ]
      - [ -0.70710678118655,  0.00000000000000 ]
  - # 5
    frequency:   15.2502188529
    eigenvector:
    - # atom 1
      - [  0.00000000000000,  0.00000000000000 ]
      - [ -0.70710678118655,  0.00000000000000 ]
      - [ -0.00000000000000,  0.00000000000000 ]
    - # atom 2
      - [  0.00000000000000,  0.00000000000000 ]
      - [  0.70710678118655,  0.00000000000000 ]
      - [  0.00000000000000,  0.00000000000000 ]
  - # 6
    frequency:   15.2502188529
    eigenvector:
    - # atom 1
      - [  0.70710678118655,  0.00000000000000 ]
      - [  0.00000000000000,  0.00000000000000 ]
      - [ -0.00000000000000,  0.00000000000000 ]
    - # atom 2
      - [ -0.70710678118655,  0.00000000000000 ]
      - [  0.00000000000000,  0.00000000000000 ]
      - [  0.00000000000000,  0.00000000000000 ]

- q-position: [    0.0102041,    0.0000000,    0.0102041 ]
  distance:    0.0037611
  band:
  - # 1
    frequency:    0.1141710068
    eigenvector:
    - # atom 1
      - [  0.00438354506079,  0.00000000000000 ]
      - [ -0.00000000000002, -0.00000000000006 ]
      - [  0.12695607847558,  0.69560257235781 ]
    - # atom 2
      - [  0.02063684005279, -0.00296664595230 ]
      - [ -0.00000000000002, -0.00000000000006 ]
      - [  0.12692141219547,  0.69531020053695 ]
  - # 2
    frequency:    0.1141710068
    eigenvector:
    - # atom 1
      - [  0.70709319366877,  0.00000000000000 ]
      - [  0.00000000000007,  0.00000000000000 ]
      - [ -0.00078704998962, -0.00431231024091 ]
    - # atom 2
      - [  0.70679934882977,  0.00001839138932 ]
      - [  0.00000000000007,  0.00000000000000 ]
      - [ -0.00078683507990, -0.02083413175843 ]
  - # 3
    frequency:    0.3010666006
    eigenvector:
    - # atom 1
      - [  0.00000000000007,  0.00000000000000 ]
      - [ -0.70706372513554, -0.00780311459990 ]
      - [ -0.00000000000006, -0.00000000000001 ]
    - # atom 2
      - [  0.00000000000007,  0.00000000000000 ]
      - [ -0.70706372513554, -0.00780311459990 ]
      - [ -0.00000000000006, -0.00000000000001 ]
  - # 4
    frequency:   15.2488100919
    eigenvector:
    - # atom 1
      - [  0.70710489116532,  0.00000000000000 ]
      - [ -0.00000000000040, -0.00000000000000 ]
      - [  0.00162613083843, -0.00016908157617 ]
    - # atom 2
      - [ -0.70690786002115,  0.00003799860966 ]
      - [  0.00000000000040,  0.00000000000000 ]
      - [ -0.00162568681159,  0.01669230777363 ]
  - # 5
    frequency:   15.2488100919
    eigenvector:
    - # atom 1
      - [  0.00163489757572,  0.00000000000000 ]
      - [ -0.00000000000174,  0.00000000000012 ]
      - [ -0.70331321460480,  0.07312899064110 ]
    - # atom 2
      - [ -0.00334329272204, -0.01643467037070 ]
      - [  0.00000000000174, -0.00000000000012 ]
      - [  0.70312116981893, -0.07307081877223 ]
  - # 6
    frequency:   15.2492729625
    eigenvector:
    - # atom 1
      - [ -0.00000000000041,  0.00000000000000 ]
      - [ -0.70706117832379, -0.00803057329077 ]
      - [  0.00000000000174, -0.00000000000004 ]
    - # atom 2
      - [  0.00000000000041,  0.00000000000004 ]
      - [  0.70706117832379,  0.00803057329077 ]
      - [ -0.00000000000174,  0.00000000000003 ]

- q-position: [    0.0204082,    0.0000000,    0.0204082 ]
  distance:    0.0075223
  band:
  - # 1
    frequency:    0.2283131779
    eigenvector:
    - # atom 1
      - [ -0.00000000000000,  0.00000000000000 ]
      - [ -0.00000000000004,  0.00000000000009 ]
      - [  0.30410636876349, -0.63837239639374 ]
    - # atom 2
      - [ -0.02984054556848, -0.01421537022280 ]
      - [ -0.00000000000004,  0.00000000000009 ]
      - [  0.30377394024495, -0.63767457085700 ]
  - # 2
    frequency:    0.2283131779
    eigenvector:
    - # atom 1
      - [  0.70710678118655,  0.00000000000000 ]
      - [  0.00000000000000,  0.00000000000000 ]
      - [  0.00000000000000,  0.00000000000000 ]
    - # atom 2
      - [  0.70633381986820,  0.00000000000000 ]
      - [  0.00000000000000, -0.00000000000000 ]
      - [  0.00000000000000, -0.03305351585529 ]
  - # 3
    frequency:    0.6019767783
    eigenvector:
    - # atom 1
      - [  0.00000000000000,  0.00000000000000 ]
      - [ -0.70053426196354,  0.09618600633770 ]
      - [ -0.00000000000009,  0.00000000000001 ]
    - # atom 2
      - [  0.00000000000000,  0.00000000000000 ]
      - [ -0.70053426196354,  0.09618600633770 ]
      - [ -0.00000000000009,  0.00000000000001 ]
  - # 4
    frequency:   15.2445874936
    eigenvector:
    - # atom 1
      - [ -0.70710678118655,  0.00000000000000 ]
      - [  0.00000000000000,  0.00000000000000 ]
      - [  0.00000000000000,  0.00000000000000 ]
    - # atom 2
      - [  0.70633381986820,  0.00000000000000 ]
      - [  0.00000000000000, -0.00000000000000 ]
      - [  0.00000000000000, -0.03305351585529 ]
  - # 5
    frequency:   15.2445874936
    eigenvector:
    - # atom 1
      - [  0.00000000000000,  0.00000000000000 ]
      - [  0.00000000000012,  0.00000000000016 ]
      - [  0.53102556130140, -0.46691739445488 ]
    - # atom 2
      - [  0.02182592772598,  0.02482264670208 ]
      - [ -0.00000000000012, -0.00000000000016 ]
      - [ -0.53044508006594,  0.46640699193241 ]
  - # 6
    frequency:   15.2464327891
    eigenvector:
    - # atom 1
      - [  0.00000000000000,  0.00000000000000 ]
      - [ -0.69947150356328,  0.10363211714005 ]
      - [ -0.00000000000005, -0.00000000000020 ]
    - # atom 2
      - [  0.00000000000001, -0.00000000000000 ]
      - [  0.69947150356328, -0.10363211714005 ]
      - [  0.00000000000005,  0.00000000000020 ]

- q-position: [    0.0306122,    0.0000000,    0.0306122 ]
  distance:    0.0112834
  band:
  - # 1
    frequency:    0.3423971998
    eigenvector:
    - # atom 1
      - [ -0.70710556352355,  0.00000000000000 ]
      - [ -0.00000000000001, -0.00000000000000 ]
      - [ -0.00031803965623,  0.00127313974958 ]
    - # atom 2
      - [ -0.70527470690199,  0.00002230773120 ]
      - [ -0.00000000000001, -0.00000000000000 ]
      - [ -0.00031725634441,  0.05086734370002 ]
  - # 2
    frequency:    0.3423971998
    eigenvector:
    - # atom 1
      - [ -0.00131226294808,  0.00000000000000 ]
      - [ -0.00000000000001,  0.00000000000002 ]
      - [  0.17137389322254, -0.68602424642844 ]
    - # atom 2
      - [ -0.04942769847596, -0.01202039641834 ]
      - [ -0.00000000000001,  0.00000000000002 ]
      - [  0.17095181001731, -0.68424256762140 ]
  - # 3
    frequency:    0.9025742988
    eigenvector:
    - # atom 1
      - [  0.00000000000001, -0.00000000000000 ]
      - [ -0.70691366482193, -0.01652484456877 ]
      - [ -0.00000000000002, -0.00000000000000 ]
    - # atom 2
      - [  0.00000000000001,  0.00000000000000 ]
      - [ -0.70691366482193, -0.01652484456877 ]
      - [ -0.00000000000002, -0.00000000000000 ]
  - # 4
    frequency:   15.2375621163
    eigenvector:
    - # atom 1
      - [  0.02944115271457,  0.00000000000000 ]
      - [  0.00000000000003, -0.00000000000007 ]
      - [  0.17122557992919, -0.68543053572536 ]
    - # atom 2
      - [  0.01870838288617,  0.01200999352355 ]
      - [ -0.00000000000003,  0.00000000000006 ]
      - [ -0.17080386201036,  0.68580740531704 ]
  - # 5
    frequency:   15.2375621163
    eigenvector:
    - # atom 1
      - [  0.70649360827033,  0.00000000000000 ]
      - [ -0.00000000000004,  0.00000000000000 ]
      - [ -0.00713534898027,  0.02856340785152 ]
    - # atom 2
      - [ -0.70675703461805, -0.00050048301823 ]
      - [  0.00000000000004, -0.00000000000000 ]
      - [  0.00711777506098,  0.02106135828556 ]
  - # 6
    frequency:   15.2416908359
    eigenvector:
    - # atom 1
      - [ -0.00000000000004,  0.00000000000000 ]
      - [ -0.70689738582953, -0.01720714698550 ]
      - [  0.00000000000007, -0.00000000000002 ]
    - # atom 2
      - [  0.00000000000004,  0.00000000000001 ]
      - [  0.70689738582953,  0.01720714698550 ]
      - [ -0.00000000000007,  0.00000000000001 ]

- q-position: [    0.0408163,    0.0000000,    0.0408163 ]
  distance:    0.0150445
  band:
  - # 1
    frequency:    0.4563928050
    eigenvector:
    - # atom 1
      - [  0.70532522028650,  0.00000000000000 ]
      - [  0.00000000000000,  0.00000000000000 ]
      - [  0.04929504595601, -0.00929150536752 ]
    - # atom 2
      - [  0.70136158075963, -0.00461238248098 ]
      - [  0.00000000000000,  0.00000000000000 ]
      - [  0.04907878853083, -0.07524580704963 ]
  - # 2
    frequency:    0.4563928050
    eigenvector:
    - # atom 1
      - [  0.05016307035858,  0.00000000000000 ]
      - [  0.00000000000001,  0.00000000000000 ]
      - [ -0.69312023565178,  0.13064457624492 ]
    - # atom 2
      - [  0.06216700720044,  0.06485308148381 ]
      - [  0.00000000000001,  0.00000000000000 ]
      - [ -0.69007951635448,  0.12537783753820 ]
  - # 3
    frequency:    1.2027033041
    eigenvector:
    - # atom 1
      - [ -0.00000000000000,  0.00000000000000 ]
      - [  0.69325514493294,  0.13927420444578 ]
      - [  0.00000000000001, -0.00000000000000 ]
    - # atom 2
      - [ -0.00000000000000, -0.00000000000000 ]
      - [  0.69325514493294,  0.13927420444578 ]
      - [  0.00000000000001, -0.00000000000000 ]
  - # 4
    frequency:   15.2277524042
    eigenvector:
    - # atom 1
      - [  0.59274576232106,  0.00000000000000 ]
      - [  0.00000000000003,  0.00000000000002 ]
      - [  0.38318895969866, -0.04264601289083 ]
    - # atom 2
      - [ -0.58615513259784,  0.03585378632564 ]
      - [ -0.00000000000003, -0.00000000000002 ]
      - [ -0.38150790927719,  0.09792028234368 ]
  - # 5
    frequency:   15.2277524042
    eigenvector:
    - # atom 1
      - [ -0.38555474481638,  0.00000000000000 ]
      - [  0.00000000000007,  0.00000000000003 ]
      - [  0.58910864172549, -0.06556330523948 ]
    - # atom 2
      - [  0.38999786805231,  0.05512104362198 ]
      - [ -0.00000000000007, -0.00000000000003 ]
      - [ -0.58652422141432,  0.02920053353973 ]
  - # 6
    frequency:   15.2350346435
    eigenvector:
    - # atom 1
      - [ -0.00000000000001,  0.00000000000000 ]
      - [ -0.69279580725364, -0.14154140543240 ]
      - [  0.00000000000008, -0.00000000000002 ]
    - # atom 2
      - [  0.00000000000001,  0.00000000000001 ]
      - [  0.69279580725364,  0.14154140543240 ]
      - [ -0.00000000000008,  0.00000000000002 ]

- q-position: [    0.0510204,    0.0000000,    0.0510204 ]
  distance:    0.0188057
  band:
  - # 1
    frequency:    0.5702682965
    eigenvector:
    - # atom 1
      - [  0.09757806231238, -0.00000000000000 ]
      - [ -0.00000000000000, -0.00000000000000 ]
      - [  0.00374098894212, -0.70033172622486 ]
    - # atom 2
      - [  0.01494736551861, -0.00043780980424 ]
      - [ -0.00000000000000, -0.00000000000000 ]
      - [  0.00371528206741, -0.70693888085590 ]
  - # 2
    frequency:    0.5702682965
    eigenvector:
    - # atom 1
      - [ -0.70034171784591,  0.00000000000000 ]
      - [  0.00000000000000, -0.00000000000000 ]
      - [  0.00052122905548, -0.09757667018765 ]
    - # atom 2
      - [ -0.70694864089668, -0.00006099969668 ]
      - [  0.00000000000000, -0.00000000000000 ]
      - [  0.00051764733678, -0.01494481363572 ]
  - # 3
    frequency:    1.5022085008
    eigenvector:
    - # atom 1
      - [  0.00000000000000,  0.00000000000000 ]
      - [  0.70584228317728, -0.04226903451797 ]
      - [ -0.00000000000001, -0.00000000000000 ]
    - # atom 2
      - [  0.00000000000000,  0.00000000000000 ]
      - [  0.70584228317728, -0.04226903451797 ]
      - [ -0.00000000000001, -0.00000000000000 ]
  - # 4
    frequency:   15.2151842074
    eigenvector:
    - # atom 1
      - [ -0.01819149071880,  0.00000000000000 ]
      - [ -0.00000000000000,  0.00000000000001 ]
      - [ -0.09296173155200,  0.70073332026690 ]
    - # atom 2
      - [ -0.06394068579864, -0.01087935787098 ]
      - [  0.00000000000000, -0.00000000000001 ]
      - [  0.09232292838435, -0.69804706515138 ]
  - # 5
    frequency:   15.2151842074
    eigenvector:
    - # atom 1
      - [ -0.70687273937069,  0.00000000000000 ]
      - [ -0.00000000000002,  0.00000000000000 ]
      - [  0.00239238604425, -0.01803349171923 ]
    - # atom 2
      - [  0.70412580543673,  0.00027998213358 ]
      - [  0.00000000000002, -0.00000000000000 ]
      - [ -0.00237594633559, -0.06481609836373 ]
  - # 6
    frequency:   15.2264468405
    eigenvector:
    - # atom 1
      - [  0.00000000000002,  0.00000000000000 ]
      - [ -0.70581328409813,  0.04275053205059 ]
      - [  0.00000000000001, -0.00000000000000 ]
    - # atom 2
      - [ -0.00000000000002,  0.00000000000000 ]
      - [  0.70581328409813, -0.04275053205059 ]
      - [ -0.00000000000001,  0.00000000000000 ]

- q-position: [    0.0612245,    0.0000000,    0.0612245 ]
  distance:    0.0225668
  band:
  - # 1
    frequency:    0.6839900758
    eigenvector:
    - # atom 1
      - [ -0.02247144550471,  0.00000000000000 ]
      - [  0.00000000000000,  0.00000000000000 ]
      - [  0.06323253539267,  0.70391525101019 ]
    - # atom 2
      - [  0.07668068441808, -0.00888677666734 ]
      - [  0.00000000000000,  0.00000000000000 ]
      - [  0.06260494175902,  0.70008693681927 ]
  - # 2
    frequency:    0.6839900758
    eigenvector:
    - # atom 1
      - [ -0.70674962620219,  0.00000000000000 ]
      - [  0.00000000000000, -0.00000000000000 ]
      - [ -0.00201050898440, -0.02238132517736 ]
    - # atom 2
      - [ -0.70288051473764,  0.00028255935368 ]
      - [  0.00000000000000, -0.00000000000000 ]
      - [ -0.00199055434189,  0.07716825678848 ]
  - # 3
    frequency:    1.8009353466
    eigenvector:
    - # atom 1
      - [ -0.00000000000000,  0.00000000000000 ]
      - [ -0.70659497867672,  0.02689862652345 ]
      - [  0.00000000000000,  0.00000000000000 ]
    - # atom 2
      - [ -0.00000000000000, -0.00000000000000 ]
      - [ -0.70659497867672,  0.02689862652345 ]
      - [  0.00000000000000,  0.00000000000000 ]
  - # 4
    frequency:   15.1998908104
    eigenvector:
    - # atom 1
      - [ -0.01965776540906,  0.00000000000000 ]
      - [ -0.00000000000003, -0.00000000000008 ]
      - [ -0.00594994432264,  0.70680843969330 ]
    - # atom 2
      - [ -0.07987305048322, -0.00083621233990 ]
      - [  0.00000000000003,  0.00000000000008 ]
      - [  0.00589089011654, -0.70255597212540 ]
  - # 5
    frequency:   15.1998908104
    eigenvector:
    - # atom 1
      - [ -0.70683348269527,  0.00000000000000 ]
      - [ -0.00000000000001,  0.00000000000000 ]
      - [  0.00016547406504, -0.01965706893744 ]
    - # atom 2
      - [  0.70258066868836,  0.00002325592436 ]
      - [  0.00000000000001, -0.00000000000000 ]
      - [ -0.00016383170690, -0.07987725961589 ]
  - # 6
    frequency:   15.2159052159
    eigenvector:
    - # atom 1
      - [  0.00000000000001,  0.00000000000000 ]
      - [ -0.70655922124449,  0.02782205733552 ]
      - [ -0.00000000000008, -0.00000000000002 ]
    - # atom 2
      - [ -0.00000000000001, -0.00000000000001 ]
      - [  0.70655922124449, -0.02782205733552 ]
      - [  0.00000000000008,  0.00000000000003 ]

- q-position: [    0.0714286,    0.0000000,    0.0714286 ]
  distance:    0.0263279
  band:
  - # 1
    frequency:    0.7975221738
    eigenvector:
    - # atom 1
      - [ -0.70649048490196,  0.00000000000000 ]
      - [  0.00000000000000,  0.00000000000000 ]
      - [ -0.00290567025089,  0.02937263732427 ]
    - # atom 2
      - [ -0.69209194664540,  0.00047684219613 ]
      - [  0.00000000000000,  0.00000000000000 ]
      - [ -0.00286627652659,  0.14491478347284 ]
  - # 2
    frequency:    0.7975221738
    eigenvector:
    - # atom 1
      - [  0.02951600824959,  0.00000000000000 ]
      - [ -0.00000000000000,  0.00000000000001 ]
      - [ -0.06954966156514,  0.70305878120765 ]
    - # atom 2
      - [  0.14449304242778,  0.01141361906106 ]
      - [ -0.00000000000000,  0.00000000000001 ]
      - [ -0.06860673963799,  0.68868324015191 ]
  - # 3
    frequency:    2.0987302365
    eigenvector:
    - # atom 1
      - [  0.00000000000000,  0.00000000000000 ]
      - [  0.70587858698653, -0.04165837771565 ]
      - [ -0.00000000000001,  0.00000000000000 ]
    - # atom 2
      - [  0.00000000000000,  0.00000000000000 ]
      - [  0.70587858698653, -0.04165837771565 ]
      - [ -0.00000000000001,  0.00000000000000 ]
  - # 4
    frequency:   15.1819129680
    eigenvector:
    - # atom 1
      - [  0.01431387351675,  0.00000000000000 ]
      - [ -0.00000000000000,  0.00000000000001 ]
      - [  0.06959606844820, -0.70352789588011 ]
    - # atom 2
      - [  0.10133437101242,  0.01142123477727 ]
      - [  0.00000000000000, -0.00000000000001 ]
      - [ -0.06865251735814,  0.69633880583238 ]
  - # 5
    frequency:   15.1819129680
    eigenvector:
    - # atom 1
      - [ -0.70696188937237,  0.00000000000000 ]
      - [ -0.00000000000001,  0.00000000000000 ]
      - [  0.00140911318701, -0.01424434537210 ]
    - # atom 2
      - [  0.69971483275186,  0.00023124600133 ]
      - [  0.00000000000001, -0.00000000000000 ]
      - [ -0.00139000908655, -0.10196650051394 ]
  - # 6
    frequency:   15.2033828107
    eigenvector:
    - # atom 1
      - [ -0.00000000000001,  0.00000000000000 ]
      - [  0.70581472224230, -0.04272678160160 ]
      - [  0.00000000000001, -0.00000000000000 ]
    - # atom 2
      - [  0.00000000000001,  0.00000000000000 ]
      - [ -0.70581472224230,  0.04272678160160 ]
      - [ -0.00000000000001, -0.00000000000000 ]

- q-position: [    0.0816327,    0.0000000,    0.0816327 ]
  distance:    0.0300891
  band:
  - # 1
    frequency:    0.9108257867
    eigenvector:
    - # atom 1
      - [ -0.67917429403574,  0.00000000000000 ]
      - [  0.00000000000000,  0.00000000000000 ]
      - [ -0.06816519505064, -0.18459627435234 ]
    - # atom 2
      - [ -0.70175368818567,  0.01279714801578 ]
      - [  0.00000000000000,  0.00000000000000 ]
      - [ -0.06695316884923, -0.05380768812644 ]
  - # 2
    frequency:    0.9108257867
    eigenvector:
    - # atom 1
      - [  0.19677977111750,  0.00000000000000 ]
      - [ -0.00000000000000,  0.00000000000000 ]
      - [ -0.23526833049663, -0.63712364133210 ]
    - # atom 2
      - [  0.07366902853476,  0.04416863542391 ]
      - [ -0.00000000000000,  0.00000000000000 ]
      - [ -0.23108509034436, -0.66273802282657 ]
  - # 3
    frequency:    2.3954406881
    eigenvector:
    - # atom 1
      - [ -0.00000000000000,  0.00000000000000 ]
      - [ -0.70697416141683,  0.01369434514548 ]
      - [  0.00000000000000,  0.00000000000000 ]
    - # atom 2
      - [ -0.00000000000000,  0.00000000000000 ]
      - [ -0.70697416141683,  0.01369434514548 ]
      - [ -0.00000000000000,  0.00000000000000 ]
  - # 4
    frequency:   15.1612989483
    eigenvector:
    - # atom 1
      - [ -0.70698965955770,  0.00000000000000 ]
      - [ -0.00000000000001, -0.00000000000000 ]
      - [ -0.00575949298863,  0.01150867147011 ]
    - # atom 2
      - [  0.69225826822185, -0.00108127152305 ]
      - [  0.00000000000001,  0.00000000000000 ]
      - [  0.00565708506030, -0.14403235164018 ]
  - # 5
    frequency:   15.1612989483
    eigenvector:
    - # atom 1
      - [  0.01286939308953,  0.00000000000000 ]
      - [ -0.00000000000001, -0.00000000000002 ]
      - [ -0.31640202136376,  0.63223740762346 ]
    - # atom 2
      - [ -0.13133509452047, -0.05940045351409 ]
      - [  0.00000000000001,  0.00000000000002 ]
      - [  0.31077616582581, -0.61857970692889 ]
  - # 6
    frequency:   15.1888480284
    eigenvector:
    - # atom 1
      - [  0.00000000000001,  0.00000000000000 ]
      - [ -0.70699045540793,  0.01282559792334 ]
      - [ -0.00000000000001, -0.00000000000001 ]
    - # atom 2
      - [ -0.00000000000001, -0.00000000000000 ]
      - [  0.70699045540793, -0.01282559792334 ]
      - [  0.00000000000001,  0.00000000000002 ]

- q-position: [    0.0918367,    0.0000000,    0.0918367 ]
  distance:    0.0338502
  band:
  - # 1
    frequency:    1.0238588170
    eigenvector:
    - # atom 1
      - [ -0.00046612108712,  0.00000000000000 ]
      - [ -0.00000000000000, -0.00000000000000 ]
      - [  0.29550167715692,  0.64240060828783 ]
    - # atom 2
      - [  0.13537229169708, -0.06248027194616 ]
      - [ -0.00000000000000, -0.00000000000000 ]
      - [  0.28882080399460,  0.62797539875231 ]
  - # 2
    frequency:    1.0238588170
    eigenvector:
    - # atom 1
      - [ -0.70710662755424,  0.00000000000000 ]
      - [  0.00000000000000, -0.00000000000000 ]
      - [ -0.00019479320039, -0.00042346720881 ]
    - # atom 2
      - [ -0.69120948818855,  0.00004118667701 ]
      - [  0.00000000000000, -0.00000000000000 ]
      - [ -0.00019038920284,  0.14909528997838 ]
  - # 3
    frequency:    2.6909155246
    eigenvector:
    - # atom 1
      - [  0.00000000000000,  0.00000000000000 ]
      - [  0.70638099179058, -0.03202958689965 ]
      - [  0.00000000000000, -0.00000000000000 ]
    - # atom 2
      - [  0.00000000000000, -0.00000000000000 ]
      - [  0.70638099179058, -0.03202958689965 ]
      - [  0.00000000000000, -0.00000000000000 ]
  - # 4
    frequency:   15.1381045839
    eigenvector:
    - # atom 1
      - [  0.00086423799084,  0.00000000000000 ]
      - [  0.00000000000001, -0.00000000000000 ]
      - [  0.29550152064749,  0.64240026804767 ]
    - # atom 2
      - [ -0.13667250130637,  0.06248023885413 ]
      - [ -0.00000000000001,  0.00000000000000 ]
      - [ -0.28882065102362, -0.62769377779430 ]
  - # 5
    frequency:   15.1381045839
    eigenvector:
    - # atom 1
      - [ -0.70710625304313,  0.00000000000000 ]
      - [ -0.00000000000001,  0.00000000000000 ]
      - [  0.00036116727775,  0.00078515317123 ]
    - # atom 2
      - [  0.69095357391641,  0.00007636447261 ]
      - [  0.00000000000001, -0.00000000000000 ]
      - [ -0.00035300179864, -0.15027650598260 ]
  - # 6
    frequency:   15.1722647650
    eigenvector:
    - # atom 1
      - [  0.00000000000001,  0.00000000000000 ]
      - [ -0.70633137370008,  0.03310574764241 ]
      - [  0.00000000000000,  0.00000000000001 ]
    - # atom 2
      - [ -0.00000000000001,  0.00000000000000 ]
      - [  0.70633137370008, -0.03310574764241 ]
      - [ -0.00000000000000, -0.00000000000001 ]

- q-position: [    0.1020408,    0.0000000,    0.1020408 ]
  distance:    0.0376113
  band:
  - # 1
    frequency:    1.1365754213
    eigenvector:
    - # atom 1
      - [ -0.70710678118655,  0.00000000000000 ]
      - [  0.00000000000000,  0.00000000000000 ]
      - [ -0.00000000000000,  0.00000000000000 ]
    - # atom 2
      - [ -0.68726755358288,  0.00000000000000 ]
      - [  0.00000000000000,  0.00000000000000 ]
      - [  0.00000000000000,  0.16632290820028 ]
  - # 2
    frequency:    1.1365754213
    eigenvector:
    - # atom 1
      - [ -0.00000000000000,  0.00000000000000 ]
      - [  0.00000000000000,  0.00000000000000 ]
      - [  0.03484116049647,  0.70624789807493 ]
    - # atom 2
      - [  0.16612088505366, -0.00819520232732 ]
      - [  0.00000000000000,  0.00000000000000 ]
      - [  0.03386362537524,  0.68643276807292 ]
  - # 3
    frequency:    2.9850050569
    eigenvector:
    - # atom 1
      - [  0.00000000000000,  0.00000000000000 ]
      - [ -0.70647573711433,  0.02986691930493 ]
      - [  0.00000000000000,  0.00000000000000 ]
    - # atom 2
      - [  0.00000000000000, -0.00000000000000 ]
      - [ -0.70647573711433,  0.02986691930493 ]
      - [  0.00000000000000,  0.00000000000000 ]
  - # 4
    frequency:   15.1123933281
    eigenvector:
    - # atom 1
      - [  0.70710678118655,  0.00000000000000 ]
      - [  0.00000000000000,  0.00000000000000 ]
      - [ -0.00000000000000,  0.00000000000000 ]
    - # atom 2
      - [ -0.68726755358288,  0.00000000000000 ]
      - [  0.00000000000000,  0.00000000000000 ]
      - [  0.00000000000000,  0.16632290820028 ]
  - # 5
    frequency:   15.1123933281
    eigenvector:
    - # atom 1
      - [  0.00000000000000,  0.00000000000000 ]
      - [ -0.00000000000000,  0.00000000000004 ]
      - [  0.03325752780400, -0.70632424342108 ]
    - # atom 2
      - [  0.16613884270919,  0.00782270640176 ]
      - [  0.00000000000000, -0.00000000000004 ]
      - [ -0.03232442451438,  0.68650697140496 ]
  - # 6
    frequency:   15.1535925562
    eigenvector:
    - # atom 1
      - [  0.00000000000000,  0.00000000000000 ]
      - [ -0.70631853580270,  0.03337852575424 ]
      - [ -0.00000000000004,  0.00000000000000 ]
    - # atom 2
      - [ -0.00000000000000, -0.00000000000001 ]
      - [  0.70631853580270, -0.03337852575424 ]
      - [  0.00000000000004, -0.00000000000000 ]

- q-position: [    0.1122449,    0.0000000,    0.1122449 ]
  distance:    0.0413725
  band:
  - # 1
    frequency:    1.2489255655
    eigenvector:
    - # atom 1
      - [  0.00683145760016,  0.00000000000000 ]
      - [ -0.00000000000000, -0.00000000000000 ]
      - [  0.24715704644344,  0.66247016957778 ]
    - # atom 2
      - [  0.17822927779188, -0.06403281266128 ]
      - [ -0.00000000000000, -0.00000000000000 ]
      - [  0.23871825340625,  0.63808127925143 ]
  - # 2
    frequency:    1.2489255655
    eigenvector:
    - # atom 1
      - [  0.70707378058238, -0.00000000000000 ]
      - [  0.00000000000000,  0.00000000000000 ]
      - [ -0.00238793026941, -0.00640051575822 ]
    - # atom 2
      - [  0.68127361661943,  0.00061865883975 ]
      - [  0.00000000000000,  0.00000000000000 ]
      - [ -0.00230639810344, -0.18936883874417 ]
  - # 3
    frequency:    3.2775612639
    eigenvector:
    - # atom 1
      - [  0.00000000000000,  0.00000000000000 ]
      - [ -0.70655880432641, -0.02783264322404 ]
      - [ -0.00000000000000, -0.00000000000000 ]
    - # atom 2
      - [  0.00000000000000,  0.00000000000000 ]
      - [ -0.70655880432641, -0.02783264322404 ]
      - [ -0.00000000000000, -0.00000000000000 ]
  - # 4
    frequency:   15.0842363182
    eigenvector:
    - # atom 1
      - [ -0.00950528102660,  0.00000000000000 ]
      - [ -0.00000000000000, -0.00000000000000 ]
      - [ -0.24714624899576, -0.66244122851762 ]
    - # atom 2
      - [  0.18080430969953, -0.06403001528627 ]
      - [  0.00000000000000,  0.00000000000000 ]
      - [  0.23870782462063,  0.63736059903433 ]
  - # 5
    frequency:   15.0842363182
    eigenvector:
    - # atom 1
      - [  0.70704289094270,  0.00000000000000 ]
      - [ -0.00000000000001, -0.00000000000000 ]
      - [ -0.00332256300356, -0.00890566912040 ]
    - # atom 2
      - [ -0.68059475296097, -0.00086080108750 ]
      - [  0.00000000000001,  0.00000000000000 ]
      - [  0.00320911925618,  0.19178045473166 ]
  - # 6
    frequency:   15.1327867419
    eigenvector:
    - # atom 1
      - [ -0.00000000000001,  0.00000000000000 ]
      - [ -0.70652394281788, -0.02870397577120 ]
      - [  0.00000000000000,  0.00000000000000 ]
    - # atom 2
      - [  0.00000000000001,  0.00000000000000 ]
      - [  0.70652394281788,  0.02870397577120 ]
      - [ -0.00000000000000, -0.00000000000000 ]

- q-position: [    0.1224490,    0.0000000,    0.1224490 ]
  distance:    0.0451336
  band:
  - # 1
    frequency:    1.3608545893
    eigenvector:
    - # atom 1
      - [  0.70710678118655,  0.00000000000000 ]
      - [  0.00000000000000,  0.00000000000000 ]
      - [  0.00000000000000,  0.00000000000000 ]
    - # atom 2
      - [  0.67819464558665, -0.00000000000000 ]
      - [  0.00000000000000, -0.00000000000000 ]
      - [  0.00000000000000, -0.20013001448459 ]
  - # 2
    frequency:    1.3608545893