nqpoint: 500    
npath: 10     
segment_nqpoint:
- 50
- 50
- 50
- 50
- 50
- 50
- 50
- 50
- 50
- 50
labels:
- [ 'G', 'X' ]
- [ 'X', 'W' ]
- [ 'W', 'K' ]
- [ 'K', 'G' ]
- [ 'G', 'L' ]
- [ 'L', 'U' ]
- [ 'U', 'W' ]
- [ 'W', 'L' ]
- [ 'L', 'K|U' ]
- [ 'K|U', 'X' ]
reciprocal_lattice:
- [  -0.18429553,   0.18429553,   0.18429553 ] # a*
- [   0.18429553,  -0.18429553,   0.18429553 ] # b*
- [   0.18429553,   0.18429553,  -0.18429553 ] # c*
natom: 2      
lattice:
- [     0.000000000000000,     2.713033762910000,     2.713033762910000 ] # a
- [     2.713033762910000,     0.000000000000000,     2.713033762910000 ] # b
- [     2.713033762910000,     2.713033762910000,     0.000000000000000 ] # c
points:
- symbol: Si # 1
  coordinates: [  0.000000000000000,  0.000000000000000,  0.000000000000000 ]
  mass: 28.085000
  magnetic_moment: 0.00000000
- symbol: Si # 2
  coordinates: [  0.250000000000000,  0.250000000000000,  0.250000000000000 ]
  mass: 28.085000
  magnetic_moment: 0.00000000

phonon:
- q-position: [    0.0000000,    0.0000000,    0.0000000 ]
  distance:    0.0000000
  band:
  - # 1
    frequency:   -0.0000004035
    eigenvector:
    - # atom 1
      - [ -0.70710678118655,  0.00000000000000 ]
      - [  0.00000000000000,  0.00000000000000 ]
      - [ -0.00000000000000,  0.00000000000000 ]
    - # atom 2
      - [ -0.70710678118655,  0.00000000000000 ]
      - [  0.00000000000000,  0.00000000000000 ]
      - [ -0.00000000000000,  0.00000000000000 ]
  - # 2
    frequency:   -0.0000003863
    eigenvector:
    - # atom 1
      - [  0.00000000000000,  0.00000000000000 ]
      - [  0.70710678118655,  0.00000000000000 ]
      - [  0.00000000000000,  0.00000000000000 ]
    - # atom 2
      - [  0.00000000000000,  0.00000000000000 ]
      - [  0.70710678118655,  0.00000000000000 ]
      - [  0.00000000000000,  0.00000000000000 ]
  - # 3
    frequency:   -0.0000003494
    eigenvector:
    - # atom 1
      - [  0.00000000000000,  0.00000000000000 ]
      - [ -0.00000000000000,  0.00000000000000 ]
      - [  0.70710678118655,  0.00000000000000 ]
    - # atom 2
      - [ -0.00000000000000,  0.00000000000000 ]
      - [ -0.00000000000000,  0.00000000000000 ]
      - [  0.70710678118655,  0.00000000000000 ]
  - # 4
    frequency:   15.2736516636
    eigenvector:
    - # atom 1
      - [  0.00000000000000,  0.00000000000000 ]
      - [ -0.00000000000000,  0.00000000000000 ]
      - [ -0.70710678118655,  0.00000000000000 ]
    - # atom 2
      - [ -0.00000000000000,  0.00000000000000 ]
      - [ -0.00000000000000,  0.00000000000000 ]
      - [  0.70710678118655,  0.00000000000000 ]
  - # 5
    frequency:   15.2736516636
    eigenvector:
    - # atom 1
      - [  0.00000000000000,  0.00000000000000 ]
      - [ -0.70710678118655,  0.00000000000000 ]
      - [ -0.00000000000000,  0.00000000000000 ]
    - # atom 2
      - [  0.00000000000000,  0.00000000000000 ]
      - [  0.70710678118655,  0.00000000000000 ]
      - [ -0.00000000000000,  0.00000000000000 ]
  - # 6
    frequency:   15.2736516636
    eigenvector:
    - # atom 1
      - [  0.70710678118655,  0.00000000000000 ]
      - [  0.00000000000000,  0.00000000000000 ]
      - [ -0.00000000000000,  0.00000000000000 ]
    - # atom 2
      - [ -0.70710678118655,  0.00000000000000 ]
      - [  0.00000000000000,  0.00000000000000 ]
      - [ -0.00000000000000,  0.00000000000000 ]

- q-position: [    0.0102041,    0.0000000,    0.0102041 ]
  distance:    0.0037611
  band:
  - # 1
    frequency:    0.1122131988
    eigenvector:
    - # atom 1
      - [ -0.65132513890662,  0.00000000000000 ]
      - [  0.00000000000005,  0.00000000000001 ]
      - [ -0.27395050867662, -0.02695704405332 ]
    - # atom 2
      - [ -0.65177706849386,  0.00639826960990 ]
      - [  0.00000000000005,  0.00000000000001 ]
      - [ -0.27387578087552, -0.01173762247532 ]
  - # 2
    frequency:    0.1122131988
    eigenvector:
    - # atom 1
      - [  0.27527361556871,  0.00000000000000 ]
      - [ -0.00000000000010,  0.00000000000001 ]
      - [ -0.64819453454957, -0.06378308515426 ]
    - # atom 2
      - [  0.27370883669887,  0.01513895123520 ]
      - [ -0.00000000000010,  0.00000000000001 ]
      - [ -0.64801772103503, -0.07019485802406 ]
  - # 3
    frequency:    0.3006467078
    eigenvector:
    - # atom 1
      - [  0.00000000000008,  0.00000000000000 ]
      - [  0.70709893588540, -0.00333089623600 ]
      - [ -0.00000000000007, -0.00000000000002 ]
    - # atom 2
      - [  0.00000000000008,  0.00000000000000 ]
      - [  0.70709893588540, -0.00333089623600 ]
      - [ -0.00000000000007, -0.00000000000002 ]
  - # 4
    frequency:   15.2722227855
    eigenvector:
    - # atom 1
      - [  0.05439476293489,  0.00000000000000 ]
      - [ -0.00000000000278, -0.00000000000001 ]
      - [ -0.69981380547559, -0.08545084804164 ]
    - # atom 2
      - [ -0.05238417216121, -0.01634454860403 ]
      - [  0.00000000000278,  0.00000000000001 ]
      - [  0.69962291133521,  0.08669795944982 ]
  - # 5
    frequency:   15.2722227855
    eigenvector:
    - # atom 1
      - [ -0.70501149619368,  0.00000000000000 ]
      - [ -0.00000000000068,  0.00000000000000 ]
      - [ -0.05399373804956, -0.00659291181336 ]
    - # atom 2
      - [  0.70497316543236, -0.00126105439613 ]
      - [  0.00000000000068, -0.00000000000000 ]
      - [  0.05397900972021, -0.00987483021173 ]
  - # 6
    frequency:   15.2726869221
    eigenvector:
    - # atom 1
      - [ -0.00000000000046,  0.00000000000000 ]
      - [  0.70709796487970, -0.00353101444155 ]
      - [ -0.00000000000281, -0.00000000000032 ]
    - # atom 2
      - [  0.00000000000047, -0.00000000000007 ]
      - [ -0.70709796487970,  0.00353101444155 ]
      - [  0.00000000000281,  0.00000000000031 ]

- q-position: [    0.0204082,    0.0000000,    0.0204082 ]
  distance:    0.0075223
  band:
  - # 1
    frequency:    0.2244016030
    eigenvector:
    - # atom 1
      - [  0.70667137005513,  0.00000000000000 ]
      - [  0.00000000000003,  0.00000000000000 ]
      - [  0.02472806306145,  0.00202426323271 ]
    - # atom 2
      - [  0.70599424786049, -0.00115531743497 ]
      - [  0.00000000000003,  0.00000000000000 ]
      - [  0.02470105958042, -0.03099427181165 ]
  - # 2
    frequency:    0.2244016030
    eigenvector:
    - # atom 1
      - [  0.02481077879483,  0.00000000000000 ]
      - [  0.00000000000005,  0.00000000000000 ]
      - [ -0.70431542463635, -0.05765594396857 ]
    - # atom 2
      - [  0.02208994722287,  0.03290625261589 ]
      - [  0.00000000000005,  0.00000000000000 ]
      - [ -0.70354629976958, -0.05875216464951 ]
  - # 3
    frequency:    0.6011381087
    eigenvector:
    - # atom 1
      - [ -0.00000000000003,  0.00000000000000 ]
      - [  0.70704587199908,  0.00928088837654 ]
      - [  0.00000000000005, -0.00000000000000 ]
    - # atom 2
      - [ -0.00000000000003, -0.00000000000000 ]
      - [  0.70704587199908,  0.00928088837654 ]
      - [  0.00000000000005,  0.00000000000000 ]
  - # 4
    frequency:   15.2679398924
    eigenvector:
    - # atom 1
      - [  0.01377276199025,  0.00000000000000 ]
      - [ -0.00000000000102,  0.00000000000001 ]
      - [  0.70440347809588, -0.06021670095237 ]
    - # atom 2
      - [ -0.01094434324875,  0.03291036655303 ]
      - [  0.00000000000102, -0.00000000000001 ]
      - [ -0.70363425707317,  0.06079441912940 ]
  - # 5
    frequency:   15.2679398924
    eigenvector:
    - # atom 1
      - [  0.70697263810360,  0.00000000000000 ]
      - [ -0.00000000000015, -0.00000000000000 ]
      - [ -0.01372271135548,  0.00117310097358 ]
    - # atom 2
      - [ -0.70625541984961, -0.00064113746575 ]
      - [  0.00000000000015,  0.00000000000000 ]
      - [  0.01370772591263,  0.03185858010184 ]
  - # 6
    frequency:   15.2697902498
    eigenvector:
    - # atom 1
      - [ -0.00000000000017,  0.00000000000000 ]
      - [ -0.70704200850160, -0.00957069558708 ]
      - [ -0.00000000000102,  0.00000000000007 ]
    - # atom 2
      - [  0.00000000000017, -0.00000000000005 ]
      - [  0.70704200850160,  0.00957069558708 ]
      - [  0.00000000000102, -0.00000000000007 ]

- q-position: [    0.0306122,    0.0000000,    0.0306122 ]
  distance:    0.0112834
  band:
  - # 1
    frequency:    0.3365399201
    eigenvector:
    - # atom 1
      - [ -0.70710678118655,  0.00000000000000 ]
      - [  0.00000000000000,  0.00000000000000 ]
      - [ -0.00000000000000,  0.00000000000000 ]
    - # atom 2
      - [ -0.70536699364759,  0.00000000000000 ]
      - [  0.00000000000000, -0.00000000000000 ]
      - [ -0.00000000000000,  0.04957221270589 ]
  - # 2
    frequency:    0.3365399201
    eigenvector:
    - # atom 1
      - [  0.00000000000000,  0.00000000000000 ]
      - [  0.00000000000002, -0.00000000000000 ]
      - [ -0.68916911794196, -0.15825904989952 ]
    - # atom 2
      - [ -0.01109486076641,  0.04831468034802 ]
      - [  0.00000000000002, -0.00000000000000 ]
      - [ -0.68747346478811, -0.15786966440603 ]
  - # 3
    frequency:    0.9013190825
    eigenvector:
    - # atom 1
      - [  0.00000000000000,  0.00000000000000 ]
      - [  0.69846009875888, -0.11024287025350 ]
      - [  0.00000000000002,  0.00000000000001 ]
    - # atom 2
      - [  0.00000000000000, -0.00000000000000 ]
      - [  0.69846009875888, -0.11024287025350 ]
      - [  0.00000000000002,  0.00000000000001 ]
  - # 4
    frequency:   15.2608142116
    eigenvector:
    - # atom 1
      - [  0.00000000000000,  0.00000000000000 ]
      - [ -0.00000000000010, -0.00000000000001 ]
      - [  0.69322210801502,  0.13943854904298 ]
    - # atom 2
      - [ -0.00977543646373,  0.04859881803605 ]
      - [  0.00000000000010,  0.00000000000001 ]
      - [ -0.69151648275821, -0.13909547009575 ]
  - # 5
    frequency:   15.2608142116
    eigenvector:
    - # atom 1
      - [  0.70710678118655,  0.00000000000000 ]
      - [  0.00000000000000,  0.00000000000000 ]
      - [ -0.00000000000000,  0.00000000000000 ]
    - # atom 2
      - [ -0.70536699364759,  0.00000000000000 ]
      - [  0.00000000000000, -0.00000000000000 ]
      - [ -0.00000000000000,  0.04957221270589 ]
  - # 6
    frequency:   15.2649543138
    eigenvector:
    - # atom 1
      - [  0.00000000000000,  0.00000000000000 ]
      - [  0.69793742458568, -0.11350485171441 ]
      - [  0.00000000000010, -0.00000000000000 ]
    - # atom 2
      - [  0.00000000000000,  0.00000000000001 ]
      - [ -0.69793742458568,  0.11350485171441 ]
      - [ -0.00000000000010,  0.00000000000000 ]

- q-position: [    0.0408163,    0.0000000,    0.0408163 ]
  distance:    0.0150445
  band:
  - # 1
    frequency:    0.4486018636
    eigenvector:
    - # atom 1
      - [  0.66329210956413,  0.00000000000000 ]
      - [  0.00000000000001, -0.00000000000000 ]
      - [  0.24466713307233,  0.01347484263837 ]
    - # atom 2
      - [  0.66164535925180, -0.02288114201999 ]
      - [  0.00000000000001, -0.00000000000000 ]
      - [  0.24359486724004, -0.04861494188755 ]
  - # 2
    frequency:    0.4486018636
    eigenvector:
    - # atom 1
      - [  0.24503791010772,  0.00000000000000 ]
      - [ -0.00000000000001,  0.00000000000000 ]
      - [ -0.66228845473424, -0.03647499603518 ]
    - # atom 2
      - [  0.24055289681924,  0.06193686908694 ]
      - [ -0.00000000000001,  0.00000000000000 ]
      - [ -0.65938594276947, -0.05923095945194 ]
  - # 3
    frequency:    1.2010348821
    eigenvector:
    - # atom 1
      - [ -0.00000000000000,  0.00000000000000 ]
      - [  0.70633627154359,  0.03300108334427 ]
      - [ -0.00000000000001, -0.00000000000000 ]
    - # atom 2
      - [ -0.00000000000000,  0.00000000000000 ]
      - [  0.70633627154359,  0.03300108334427 ]
      - [ -0.00000000000001, -0.00000000000000 ]
  - # 4
    frequency:   15.2508644692
    eigenvector:
    - # atom 1
      - [ -0.14124258234350,  0.00000000000000 ]
      - [ -0.00000000000000, -0.00000000000000 ]
      - [  0.68988997561039,  0.06404962517641 ]
    - # atom 2
      - [  0.13463369235981,  0.06451814884938 ]
      - [  0.00000000000000,  0.00000000000000 ]
      - [ -0.68686649861290, -0.07697785677624 ]
  - # 5
    frequency:   15.2508644692
    eigenvector:
    - # atom 1
      - [  0.69285679107081,  0.00000000000000 ]
      - [ -0.00000000000002, -0.00000000000000 ]
      - [  0.14063778105936,  0.01305686048638 ]
    - # atom 2
      - [ -0.69104138260531,  0.01315237155636 ]
      - [  0.00000000000002,  0.00000000000000 ]
      - [ -0.14002142901622,  0.05179596572749 ]
  - # 6
    frequency:   15.2581669259
    eigenvector:
    - # atom 1
      - [ -0.00000000000002,  0.00000000000000 ]
      - [ -0.70627704799967, -0.03424516708783 ]
      - [ -0.00000000000001,  0.00000000000000 ]
    - # atom 2
      - [  0.00000000000002, -0.00000000000000 ]
      - [  0.70627704799967,  0.03424516708783 ]
      - [  0.00000000000001, -0.00000000000000 ]

- q-position: [    0.0510204,    0.0000000,    0.0510204 ]
  distance:    0.0188057
  band:
  - # 1
    frequency:    0.5605596582
    eigenvector:
    - # atom 1
      - [ -0.70668843068398,  0.00000000000000 ]
      - [ -0.00000000000000, -0.00000000000000 ]
      - [ -0.02083971076752, -0.01253668187913 ]
    - # atom 2
      - [ -0.70330363890348,  0.00243765290597 ]
      - [ -0.00000000000000, -0.00000000000000 ]
      - [ -0.02069665173848,  0.07021180784067 ]
  - # 2
    frequency:    0.5605596582
    eigenvector:
    - # atom 1
      - [  0.02431999048956,  0.00000000000000 ]
      - [ -0.00000000000000,  0.00000000000000 ]
      - [ -0.60555872768649, -0.36428994686281 ]
    - # atom 2
      - [ -0.01845851309703,  0.07083313241475 ]
      - [ -0.00000000000000,  0.00000000000000 ]
      - [ -0.60140172932042, -0.36463394057187 ]
  - # 3
    frequency:    1.5001313190
    eigenvector:
    - # atom 1
      - [ -0.00000000000000,  0.00000000000000 ]
      - [  0.70572356653701,  0.04420687315652 ]
      - [ -0.00000000000000, -0.00000000000000 ]
    - # atom 2
      - [ -0.00000000000000,  0.00000000000000 ]
      - [  0.70572356653701,  0.04420687315652 ]
      - [ -0.00000000000000, -0.00000000000000 ]
  - # 4
    frequency:   15.2381169098
    eigenvector:
    - # atom 1
      - [  0.70372228869448,  0.00000000000000 ]
      - [ -0.00000000000003, -0.00000000000001 ]
      - [ -0.05667920061402, -0.03952731476281 ]
    - # atom 2
      - [ -0.69426785320688, -0.00662985295843 ]
      - [  0.00000000000003,  0.00000000000001 ]
      - [  0.05629011309275,  0.12157144492544 ]
  - # 5
    frequency:   15.2381169098
    eigenvector:
    - # atom 1
      - [ -0.06910094351456,  0.00000000000000 ]
      - [ -0.00000000000017, -0.00000000000004 ]
      - [ -0.57721956819687, -0.40254518963218 ]
    - # atom 2
      - [  0.11571291180159, -0.06751825749862 ]
      - [  0.00000000000017,  0.00000000000004 ]
      - [  0.57325711056535,  0.39169898153175 ]
  - # 6
    frequency:   15.2494110935
    eigenvector:
    - # atom 1
      - [ -0.00000000000001,  0.00000000000000 ]
      - [ -0.70556830622945, -0.04661936555241 ]
      - [  0.00000000000016,  0.00000000000007 ]
    - # atom 2
      - [  0.00000000000000,  0.00000000000002 ]
      - [  0.70556830622945,  0.04661936555241 ]
      - [ -0.00000000000016, -0.00000000000007 ]

- q-position: [    0.0612245,    0.0000000,    0.0612245 ]
  distance:    0.0225668
  band:
  - # 1
    frequency:    0.6723835483
    eigenvector:
    - # atom 1
      - [  0.07191132165538, -0.00000000000000 ]
      - [ -0.00000000000000, -0.00000000000000 ]
      - [  0.53295897854429,  0.45911163022385 ]
    - # atom 2
      - [  0.13569009758682, -0.07486518775287 ]
      - [ -0.00000000000000, -0.00000000000000 ]
      - [  0.52767459335627,  0.44445801219677 ]
  - # 2
    frequency:    0.6723835483
    eigenvector:
    - # atom 1
      - [  0.70344065977009,  0.00000000000000 ]
      - [  0.00000000000000,  0.00000000000000 ]
      - [ -0.05448332279762, -0.04693405713503 ]
    - # atom 2
      - [  0.68987305195473,  0.00765331733745 ]
      - [  0.00000000000000,  0.00000000000000 ]
      - [ -0.05394311074458, -0.14528158769642 ]
  - # 3
    frequency:    1.7984549493
    eigenvector:
    - # atom 1
      - [ -0.00000000000000,  0.00000000000000 ]
      - [  0.70689369092510,  0.01735827555648 ]
      - [  0.00000000000000,  0.00000000000000 ]
    - # atom 2
      - [ -0.00000000000000, -0.00000000000000 ]
      - [  0.70689369092510,  0.01735827555648 ]
      - [  0.00000000000000,  0.00000000000000 ]
  - # 4
    frequency:   15.2226053254
    eigenvector:
    - # atom 1
      - [  0.67066859609288,  0.00000000000000 ]
      - [ -0.00000000000001,  0.00000000000000 ]
      - [ -0.17794796807287, -0.13615489294750 ]
    - # atom 2
      - [ -0.64489300477669, -0.02499649799766 ]
      - [  0.00000000000001, -0.00000000000000 ]
      - [  0.17618358161054,  0.22901426385453 ]
  - # 5
    frequency:   15.2226053254
    eigenvector:
    - # atom 1
      - [  0.22406167502455,  0.00000000000000 ]
      - [ -0.00000000000001, -0.00000000000001 ]
      - [  0.53263956860063,  0.40754319494518 ]
    - # atom 2
      - [ -0.27908799185361,  0.07482031997436 ]
      - [  0.00000000000001,  0.00000000000001 ]
      - [ -0.52735835042028, -0.37202820157086 ]
  - # 6
    frequency:   15.2386650892
    eigenvector:
    - # atom 1
      - [ -0.00000000000001,  0.00000000000000 ]
      - [ -0.70680715350511, -0.02058270521579 ]
      - [ -0.00000000000001,  0.00000000000000 ]
    - # atom 2
      - [  0.00000000000001, -0.00000000000000 ]
      - [  0.70680715350511,  0.02058270521579 ]
      - [  0.00000000000001, -0.00000000000000 ]

- q-position: [    0.0714286,    0.0000000,    0.0714286 ]
  distance:    0.0263279
  band:
  - # 1
    frequency:    0.7840413103
    eigenvector:
    - # atom 1
      - [  0.70710678118655,  0.00000000000000 ]
      - [  0.00000000000000,  0.00000000000000 ]
      - [  0.00000000000000,  0.00000000000000 ]
    - # atom 2
      - [  0.69752975082216, -0.00000000000000 ]
      - [  0.00000000000000,  0.00000000000000 ]
      - [  0.00000000000000, -0.11598382093194 ]
  - # 2
    frequency:    0.7840413103
    eigenvector:
    - # atom 1
      - [  0.00000000000000,  0.00000000000000 ]
      - [ -0.00000000000000, -0.00000000000000 ]
      - [ -0.51100895003943, -0.48874313599231 ]
    - # atom 2
      - [ -0.08016652912241,  0.08381869914546 ]
      - [ -0.00000000000000, -0.00000000000000 ]
      - [ -0.50408786207760, -0.48212361546398 ]
  - # 3
    frequency:    2.0958532571
    eigenvector:
    - # atom 1
      - [  0.00000000000000,  0.00000000000000 ]
      - [  0.68119681459781,  0.18965995829852 ]
      - [ -0.00000000000000, -0.00000000000000 ]
    - # atom 2
      - [ -0.00000000000000,  0.00000000000000 ]
      - [  0.68119681459781,  0.18965995829852 ]
      - [ -0.00000000000000, -0.00000000000000 ]
  - # 4
    frequency:   15.2043710908
    eigenvector:
    - # atom 1
      - [ -0.00000000000000,  0.00000000000000 ]
      - [ -0.00000000000002,  0.00000000000001 ]
      - [ -0.55179051214793, -0.44218461156345 ]
    - # atom 2
      - [  0.07252972559586, -0.09050793127103 ]
      - [  0.00000000000002, -0.00000000000001 ]
      - [  0.54431708008616,  0.43619567811764 ]
  - # 5
    frequency:   15.2043710908
    eigenvector:
    - # atom 1
      - [ -0.70710678118655,  0.00000000000000 ]
      - [  0.00000000000000,  0.00000000000000 ]
      - [  0.00000000000000,  0.00000000000000 ]
    - # atom 2
      - [  0.69752975082216, -0.00000000000000 ]
      - [  0.00000000000000,  0.00000000000000 ]
      - [  0.00000000000000, -0.11598382093194 ]
  - # 6
    frequency:   15.2259025404
    eigenvector:
    - # atom 1
      - [  0.00000000000000,  0.00000000000000 ]
      - [ -0.67820041111462, -0.20011047539786 ]
      - [  0.00000000000001,  0.00000000000002 ]
    - # atom 2
      - [ -0.00000000000000,  0.00000000000000 ]
      - [  0.67820041111462,  0.20011047539786 ]
      - [ -0.00000000000001, -0.00000000000002 ]

- q-position: [    0.0816327,    0.0000000,    0.0816327 ]
  distance:    0.0300891
  band:
  - # 1
    frequency:    0.8954977708
    eigenvector:
    - # atom 1
      - [ -0.55057557573327,  0.00000000000000 ]
      - [  0.00000000000000, -0.00000000000000 ]
      - [  0.32925972406661,  0.29741312935639 ]
    - # atom 2
      - [ -0.48498766899171, -0.06178385785566 ]
      - [  0.00000000000000, -0.00000000000000 ]
      - [  0.32341107093124,  0.39544278351434 ]
  - # 2
    frequency:    0.8954977708
    eigenvector:
    - # atom 1
      - [ -0.44369644511307,  0.00000000000000 ]
      - [  0.00000000000000,  0.00000000000000 ]
      - [ -0.40857294247095, -0.36905503014409 ]
    - # atom 2
      - [ -0.50506628612766,  0.07666656671372 ]
      - [  0.00000000000000,  0.00000000000000 ]
      - [ -0.40131544558826, -0.27924218395121 ]
  - # 3
    frequency:    2.3921748385
    eigenvector:
    - # atom 1
      - [ -0.00000000000000, -0.00000000000000 ]
      - [ -0.70544282855545,  0.04848108538069 ]
      - [ -0.00000000000000, -0.00000000000000 ]
    - # atom 2
      - [ -0.00000000000000,  0.00000000000000 ]
      - [ -0.70544282855545,  0.04848108538069 ]
      - [ -0.00000000000000,  0.00000000000000 ]
  - # 4
    frequency:   15.1834632076
    eigenvector:
    - # atom 1
      - [ -0.02419077950823,  0.00000000000000 ]
      - [  0.00000000000000, -0.00000000000001 ]
      - [  0.44793442206031,  0.54659817024967 ]
    - # atom 2
      - [ -0.07880519799682,  0.08405254162101 ]
      - [  0.00000000000000,  0.00000000000001 ]
      - [ -0.43997774570261, -0.54142819865813 ]
  - # 5
    frequency:   15.1834632076
    eigenvector:
    - # atom 1
      - [ -0.70669286552702,  0.00000000000000 ]
      - [ -0.00000000000001,  0.00000000000000 ]
      - [ -0.01533322800723, -0.01871058342474 ]
    - # atom 2
      - [  0.69765079569768, -0.00287719970110 ]
      - [  0.00000000000001, -0.00000000000000 ]
      - [  0.01506086328873, -0.11422897785268 ]
  - # 6
    frequency:   15.2110925379
    eigenvector:
    - # atom 1
      - [ -0.00000000000001,  0.00000000000000 ]
      - [  0.70522337792207, -0.05157506405413 ]
      - [  0.00000000000001, -0.00000000000000 ]
    - # atom 2
      - [  0.00000000000001,  0.00000000000000 ]
      - [ -0.70522337792207,  0.05157506405413 ]
      - [ -0.00000000000000,  0.00000000000000 ]

- q-position: [    0.0918367,    0.0000000,    0.0918367 ]
  distance:    0.0338502
  band:
  - # 1
    frequency:    1.0067143302
    eigenvector:
    - # atom 1
      - [ -0.11350236409474,  0.00000000000000 ]
      - [  0.00000000000000, -0.00000000000000 ]
      - [ -0.61638254468162, -0.32739849107275 ]
    - # atom 2
      - [ -0.18012945554696,  0.13026306492039 ]
      - [  0.00000000000000, -0.00000000000000 ]
      - [ -0.60246076661118, -0.29601678644322 ]
  - # 2
    frequency:    1.0067143302
    eigenvector:
    - # atom 1
      - [ -0.69793782914018,  0.00000000000000 ]
      - [  0.00000000000000, -0.00000000000000 ]
      - [  0.10023940971116,  0.05324328498369 ]
    - # atom 2
      - [ -0.67092186446639, -0.02118407285776 ]
      - [  0.00000000000000, -0.00000000000000 ]
      - [  0.09797537607174,  0.19953925057918 ]
  - # 3
    frequency:    2.6872695827
    eigenvector:
    - # atom 1
      - [ -0.00000000000000, -0.00000000000000 ]
      - [ -0.70616742783761,  0.03643574976881 ]
      - [ -0.00000000000000, -0.00000000000000 ]
    - # atom 2
      - [ -0.00000000000000,  0.00000000000000 ]
      - [ -0.70616742783761,  0.03643574976881 ]
      - [ -0.00000000000000, -0.00000000000000 ]
  - # 4
    frequency:   15.1599383540
    eigenvector:
    - # atom 1
      - [ -0.02004757079618,  0.00000000000000 ]
      - [ -0.00000000000002, -0.00000000000000 ]
      - [  0.67170971142833,  0.22000945088346 ]
    - # atom 2
      - [ -0.02690087617834,  0.14195561912390 ]
      - [  0.00000000000002,  0.00000000000000 ]
      - [ -0.65653829943597, -0.21927700844755 ]
  - # 5
    frequency:   15.1599383540
    eigenvector:
    - # atom 1
      - [  0.70682253423697,  0.00000000000000 ]
      - [  0.00000000000001, -0.00000000000000 ]
      - [  0.01905166762811,  0.00624011661877 ]
    - # atom 2
      - [ -0.69217680843162,  0.00402627984601 ]
      - [ -0.00000000000001,  0.00000000000000 ]
      - [ -0.01862136165842,  0.14327700384220 ]
  - # 6
    frequency:   15.1941997615
    eigenvector:
    - # atom 1
      - [ -0.00000000000001,  0.00000000000000 ]
      - [  0.70603458913505, -0.03892504264482 ]
      - [  0.00000000000002,  0.00000000000000 ]
    - # atom 2
      - [  0.00000000000001,  0.00000000000000 ]
      - [ -0.70603458913505,  0.03892504264482 ]
      - [ -0.00000000000002, -0.00000000000001 ]

- q-position: [    0.1020408,    0.0000000,    0.1020408 ]
  distance:    0.0376113
  band:
  - # 1
    frequency:    1.1176484942
    eigenvector:
    - # atom 1
      - [ -0.14279494089388,  0.00000000000000 ]
      - [  0.00000000000000, -0.00000000000000 ]
      - [ -0.57542154945181, -0.38535651711317 ]
    - # atom 2
      - [ -0.22939079602700,  0.13528309976471 ]
      - [  0.00000000000000, -0.00000000000000 ]
      - [ -0.55929280568551, -0.34098372853347 ]
  - # 2
    frequency:    1.1176484942
    eigenvector:
    - # atom 1
      - [  0.69253852228964,  0.00000000000000 ]
      - [  0.00000000000000,  0.00000000000000 ]
      - [ -0.11864652073271, -0.07945689562845 ]
    - # atom 2
      - [  0.65444653297593,  0.02789410496758 ]
      - [  0.00000000000000,  0.00000000000000 ]
      - [ -0.11532092520455, -0.24004736739613 ]
  - # 3
    frequency:    2.9809888525
    eigenvector:
    - # atom 1
      - [ -0.00000000000000,  0.00000000000000 ]
      - [  0.70517997336676,  0.05216517192969 ]
      - [  0.00000000000000,  0.00000000000000 ]
    - # atom 2
      - [ -0.00000000000000, -0.00000000000000 ]
      - [  0.70517997336676,  0.05216517192969 ]
      - [  0.00000000000000,  0.00000000000000 ]
  - # 4
    frequency:   15.1338609426
    eigenvector:
    - # atom 1
      - [  0.70665797618177,  0.00000000000000 ]
      - [ -0.00000000000001, -0.00000000000000 ]
      - [ -0.02517869167957, -0.00073361024526 ]
    - # atom 2
      - [ -0.68667827520047, -0.00591957576437 ]
      - [  0.00000000000001,  0.00000000000000 ]
      - [  0.02447294705312,  0.16685017186990 ]
  - # 5
    frequency:   15.1338609426
    eigenvector:
    - # atom 1
      - [ -0.02518937670302,  0.00000000000000 ]
      - [ -0.00000000000005, -0.00000000000001 ]
      - [ -0.70635822056900, -0.02058056208915 ]
    - # atom 2
      - [  0.02932187614471, -0.16606665098638 ]
      - [  0.00000000000005,  0.00000000000001 ]
      - [  0.68655939524237,  0.01408161261881 ]
  - # 6
    frequency:   15.1751846248
    eigenvector:
    - # atom 1
      - [ -0.00000000000001,  0.00000000000000 ]
      - [ -0.70478905107196, -0.05720483798668 ]
      - [  0.00000000000006, -0.00000000000000 ]
    - # atom 2
      - [  0.00000000000001,  0.00000000000001 ]
      - [  0.70478905107196,  0.05720483798668 ]
      - [ -0.00000000000005, -0.00000000000000 ]

- q-position: [    0.1122449,    0.0000000,    0.1122449 ]
  distance:    0.0413725
  band:
  - # 1
    frequency:    1.2282534142
    eigenvector:
    - # atom 1
      - [  0.70527248050170,  0.00000000000000 ]
      - [  0.00000000000000,  0.00000000000000 ]
      - [  0.03587510251775,  0.03610685899268 ]
    - # atom 2
      - [  0.69056541490285, -0.00928999980213 ]
      - [  0.00000000000000,  0.00000000000000 ]
      - [  0.03465139079944, -0.14775785853686 ]
  - # 2
    frequency:    1.2282534142
    eigenvector:
    - # atom 1
      - [  0.05089919691878,  0.00000000000000 ]
      - [ -0.00000000000000, -0.00000000000000 ]
      - [ -0.49709472983084, -0.50030600768672 ]
    - # atom 2
      - [ -0.08039321273513,  0.12872464795003 ]
      - [ -0.00000000000000, -0.00000000000000 ]
      - [ -0.48013866271707, -0.49642095133115 ]
  - # 3
    frequency:    3.2731856625
    eigenvector:
    - # atom 1
      - [ -0.00000000000000,  0.00000000000000 ]
      - [  0.70180088666768,  0.08646106333178 ]
      - [ -0.00000000000000, -0.00000000000000 ]
    - # atom 2
      - [ -0.00000000000000,  0.00000000000000 ]
      - [  0.70180088666768,  0.08646106333178 ]
      - [ -0.00000000000000, -0.00000000000000 ]
  - # 4
    frequency:   15.1053031826
    eigenvector:
    - # atom 1
      - [  0.70534030097455,  0.00000000000000 ]
      - [ -0.00000000000000, -0.00000000000000 ]
      - [ -0.04211994183732, -0.02685089050210 ]
    - # atom 2
      - [ -0.67432776355810, -0.01090712566301 ]
      - [  0.00000000000000,  0.00000000000000 ]
      - [  0.04068321656593,  0.20858566056744 ]
  - # 5
    frequency:   15.1053031826
    eigenvector:
    - # atom 1
      - [ -0.04995057378184,  0.00000000000000 ]
      - [ -0.00000000000002,  0.00000000000000 ]
      - [ -0.59476578952464, -0.37915510782527 ]
    - # atom 2
      - [  0.14643045903061, -0.15401695547111 ]
      - [  0.00000000000002, -0.00000000000000 ]
      - [  0.57447812997213,  0.35328710177307 ]
  - # 6
    frequency:   15.1540034352
    eigenvector:
    - # atom 1
      - [ -0.00000000000000,  0.00000000000000 ]
      - [ -0.70068030698890, -0.09511628355825 ]
      - [  0.00000000000001,  0.00000000000001 ]
    - # atom 2
      - [ -0.00000000000000,  0.00000000000000 ]
      - [  0.70068030698890,  0.09511628355825 ]
      - [ -0.00000000000001, -0.00000000000002 ]

- q-position: [    0.1224490,    0.0000000,    0.1224490 ]
  distance:    0.0451336
  band:
  - # 1
    frequency:    1.3384774372
    eigenvector:
    - # atom 1
      - [  0.19150228148963,  0.00000000000000 ]
      - [  0.00000000000000, -0.00000000000000 ]
      - [  0.67283347628203, -0.10306303594648 ]
    - # atom 2
      - [  0.15452379323635, -0.19034026415271 ]
      - [  0.00000000000000, -0.00000000000000 ]
      - [  0.64534910757515, -0.15302780962324 ]
  - # 2
    frequency:    1.3384774372