   2    8
1 1
    13.389714720568101    -0.000000000000000    -0.000000000000000
    -0.000000000000000    13.389714720568099     0.000000000000000
    -0.000000000000000    -0.000000000000000    13.389714720568099
1 2
     1.701018029541880    -0.000000000000000    -0.000000000000000
     0.000000000000000    -0.864004011291182    -0.000000000000000
    -0.000000000000000     0.000000000000000    -0.864004011291182
1 3
    -0.864004011291182    -0.000000000000000    -0.000000000000000
    -0.000000000000000     1.701018029541880     0.000000000000000
     0.000000000000000    -0.000000000000000    -0.864004011291182
1 4
    -0.864004011291182     0.000000000000000     0.000000000000000
    -0.000000000000000    -0.864004011291182     0.000000000000000
     0.000000000000000     0.000000000000000     1.701018029541880
1 5
    -3.340681181881910    -2.434967973833998    -2.434967973833998
    -2.434967973833998    -3.340681181881910    -2.434967973833998
    -2.434967973833998    -2.434967973833998    -3.340681181881910
1 6
    -3.340681181881910     2.434967973833998     2.434967973833998
     2.434967973833997    -3.340681181881910    -2.434967973833998
     2.434967973833998    -2.434967973833998    -3.340681181881910
1 7
    -3.340681181881910     2.434967973833998    -2.434967973833998
     2.434967973833998    -3.340681181881910     2.434967973833998
    -2.434967973833998     2.434967973833998    -3.340681181881910
1 8
    -3.340681181881910    -2.434967973833998     2.434967973833998
    -2.434967973833997    -3.340681181881910     2.434967973833998
     2.434967973833998     2.434967973833998    -3.340681181881910
5 1
    -3.340681181881910    -2.434967973833998    -2.434967973833998
    -2.434967973833998    -3.340681181881910    -2.434967973833998
    -2.434967973833998    -2.434967973833998    -3.340681181881910
5 2
    -3.340681181881910     2.434967973833998     2.434967973833998
     2.434967973833998    -3.340681181881910    -2.434967973833998
     2.434967973833998    -2.434967973833998    -3.340681181881910
5 3
    -3.340681181881910     2.434967973833997    -2.434967973833998
     2.434967973833998    -3.340681181881910     2.434967973833998
    -2.434967973833998     2.434967973833998    -3.340681181881910
5 4
    -3.340681181881910    -2.434967973833997     2.434967973833998
    -2.434967973833998    -3.340681181881910     2.434967973833998
     2.434967973833998     2.434967973833998    -3.340681181881910
5 5
    13.389714720568099     0.000000000000000    -0.000000000000000
     0.000000000000000    13.389714720568101    -0.000000000000000
    -0.000000000000000    -0.000000000000000    13.389714720568099
5 6
     1.701018029541880     0.000000000000000    -0.000000000000000
     0.000000000000000    -0.864004011291182     0.000000000000000
    -0.000000000000000     0.000000000000000    -0.864004011291182
5 7
    -0.864004011291182    -0.000000000000000     0.000000000000000
     0.000000000000000     1.701018029541880    -0.000000000000000
     0.000000000000000    -0.000000000000000    -0.864004011291182
5 8
    -0.864004011291182    -0.000000000000000     0.000000000000000
    -0.000000000000000    -0.864004011291182    -0.000000000000000
    -0.000000000000000    -0.000000000000000     1.701018029541880