8    
1    

1    
  0.0100000000000000  -0.0000000000000000  -0.0000000000000000
  -0.1338718319    0.0000000045    0.0000000081
  -0.0172023846   -0.0000000081   -0.0000000068
   0.0085180024    0.0000000030   -0.0000000061
   0.0085179999   -0.0000000051    0.0000000005
   0.0336589451    0.0247060760    0.0247060731
   0.0336589473   -0.0247060728   -0.0247060765
   0.0333601609   -0.0241181008    0.0241181094
   0.0333601608    0.0241181033   -0.0241181017
