   2    8
1 1
    13.387183193575105    -0.000000000000000     0.000000000000000
     0.000000000000000    13.387183193575105     0.000000000000000
    -0.000000000000000     0.000000000000000    13.387183193575105
1 2
     1.720238460755521    -0.000000000000000    -0.000000000000000
     0.000000000000000    -0.851800117915982    -0.000000000000000
    -0.000000000000000    -0.000000000000000    -0.851800117915982
1 3
    -0.851800117915982    -0.000000000000000     0.000000000000000
    -0.000000000000000     1.720238460755521     0.000000000000000
    -0.000000000000000    -0.000000000000000    -0.851800117915982
1 4
    -0.851800117915982     0.000000000000000     0.000000000000000
     0.000000000000000    -0.851800117915982     0.000000000000000
     0.000000000000000     0.000000000000000     1.720238460755521
1 5
    -3.350955354624671    -2.441208920162473    -2.441208920162472
    -2.441208920162472    -3.350955354624669    -2.441208920162472
    -2.441208920162472    -2.441208920162472    -3.350955354624669
1 6
    -3.350955354624670     2.441208920162473     2.441208920162473
     2.441208920162472    -3.350955354624669    -2.441208920162472
     2.441208920162472    -2.441208920162472    -3.350955354624669
1 7
    -3.350955354624671     2.441208920162472    -2.441208920162473
     2.441208920162472    -3.350955354624669     2.441208920162472
    -2.441208920162472     2.441208920162472    -3.350955354624669
1 8
    -3.350955354624670    -2.441208920162473     2.441208920162473
    -2.441208920162472    -3.350955354624669     2.441208920162473
     2.441208920162472     2.441208920162472    -3.350955354624669
5 1
    -3.350955354624669    -2.441208920162472    -2.441208920162472
    -2.441208920162472    -3.350955354624671    -2.441208920162473
    -2.441208920162472    -2.441208920162472    -3.350955354624669
5 2
    -3.350955354624669     2.441208920162472     2.441208920162472
     2.441208920162473    -3.350955354624671    -2.441208920162472
     2.441208920162472    -2.441208920162472    -3.350955354624669
5 3
    -3.350955354624669     2.441208920162472    -2.441208920162473
     2.441208920162473    -3.350955354624670     2.441208920162473
    -2.441208920162472     2.441208920162472    -3.350955354624669
5 4
    -3.350955354624669    -2.441208920162472     2.441208920162472
    -2.441208920162473    -3.350955354624670     2.441208920162473
     2.441208920162472     2.441208920162472    -3.350955354624669
5 5
    13.387183193575105     0.000000000000000    -0.000000000000000
     0.000000000000000    13.387183193575105    -0.000000000000000
    -0.000000000000000    -0.000000000000000    13.387183193575105
5 6
     1.720238460755521     0.000000000000000    -0.000000000000000
     0.000000000000000    -0.851800117915982     0.000000000000000
    -0.000000000000000     0.000000000000000    -0.851800117915982
5 7
    -0.851800117915982    -0.000000000000000     0.000000000000000
     0.000000000000000     1.720238460755521    -0.000000000000000
     0.000000000000000    -0.000000000000000    -0.851800117915982
5 8
    -0.851800117915982    -0.000000000000000     0.000000000000000
    -0.000000000000000    -0.851800117915982    -0.000000000000000
    -0.000000000000000    -0.000000000000000     1.720238460755521