8    
1    

1    
  0.0100000000000000  -0.0000000000000000  -0.0000000000000000
  -0.1338971472   -0.0000000015    0.0000000049
  -0.0170101803   -0.0000000046   -0.0000000092
   0.0086400402    0.0000000020   -0.0000000056
   0.0086400401   -0.0000000056    0.0000000004
   0.0335516340    0.0246393527    0.0246393536
   0.0335516353   -0.0246393470   -0.0246393474
   0.0332619885   -0.0240600074    0.0240600109
   0.0332619895    0.0240600113   -0.0240600076
