phonopy:
  version: "2.38.2"
  frequency_unit_conversion_factor: 15.633304
  symmetry_tolerance: 1.00000e-05

magnetic_space_group:
  uni_number: 1631
  msg_type: 2

supercell_matrix:
- [  -1,   1,   1 ]
- [   1,  -1,   1 ]
- [   1,   1,  -1 ]

primitive_cell:
  lattice:
  - [     0.000000000000000,     2.713033762910000,     2.713033762910000 ] # a
  - [     2.713033762910000,     0.000000000000000,     2.713033762910000 ] # b
  - [     2.713033762910000,     2.713033762910000,     0.000000000000000 ] # c
  points:
  - symbol: Si # 1
    coordinates: [  0.000000000000000,  0.000000000000000,  0.000000000000000 ]
    mass: 28.085000
    magnetic_moment: 0.00000000
  - symbol: Si # 2
    coordinates: [  0.250000000000000,  0.250000000000000,  0.250000000000000 ]
    mass: 28.085000
    magnetic_moment: 0.00000000
  reciprocal_lattice: # without 2pi
  - [    -0.184295531753243,     0.184295531753243,     0.184295531753243 ] # a*
  - [     0.184295531753243,    -0.184295531753243,     0.184295531753243 ] # b*
  - [     0.184295531753243,     0.184295531753243,    -0.184295531753243 ] # c*

unit_cell:
  lattice:
  - [     0.000000000000000,     2.713033762910000,     2.713033762910000 ] # a
  - [     2.713033762910000,     0.000000000000000,     2.713033762910000 ] # b
  - [     2.713033762910000,     2.713033762910000,     0.000000000000000 ] # c
  points:
  - symbol: Si # 1
    coordinates: [  0.000000000000000,  0.000000000000000,  0.000000000000000 ]
    mass: 28.085000
    reduced_to: 1
    magnetic_moment: 0.00000000
  - symbol: Si # 2
    coordinates: [  0.250000000000000,  0.250000000000000,  0.250000000000000 ]
    mass: 28.085000
    reduced_to: 2
    magnetic_moment: 0.00000000

supercell:
  lattice:
  - [     5.426067525820000,    -0.000000000000000,    -0.000000000000000 ] # a
  - [    -0.000000000000000,     5.426067525820000,     0.000000000000000 ] # b
  - [     0.000000000000000,     0.000000000000000,     5.426067525820000 ] # c
  points:
  - symbol: Si # 1
    coordinates: [  0.000000000000000,  0.000000000000000,  0.000000000000000 ]
    mass: 28.085000
    reduced_to: 1
    magnetic_moment: 0.00000000
  - symbol: Si # 2
    coordinates: [  0.000000000000000,  0.500000000000000,  0.500000000000000 ]
    mass: 28.085000
    reduced_to: 1
    magnetic_moment: 0.00000000
  - symbol: Si # 3
    coordinates: [  0.500000000000000,  0.000000000000000,  0.500000000000000 ]
    mass: 28.085000
    reduced_to: 1
    magnetic_moment: 0.00000000
  - symbol: Si # 4
    coordinates: [  0.500000000000000,  0.500000000000000,  0.000000000000000 ]
    mass: 28.085000
    reduced_to: 1
    magnetic_moment: 0.00000000
  - symbol: Si # 5
    coordinates: [  0.250000000000000,  0.250000000000000,  0.250000000000000 ]
    mass: 28.085000
    reduced_to: 5
    magnetic_moment: 0.00000000
  - symbol: Si # 6
    coordinates: [  0.250000000000000,  0.750000000000000,  0.750000000000000 ]
    mass: 28.085000
    reduced_to: 5
    magnetic_moment: 0.00000000
  - symbol: Si # 7
    coordinates: [  0.750000000000000,  0.250000000000000,  0.750000000000000 ]
    mass: 28.085000
    reduced_to: 5
    magnetic_moment: 0.00000000
  - symbol: Si # 8
    coordinates: [  0.750000000000000,  0.750000000000000,  0.250000000000000 ]
    mass: 28.085000
    reduced_to: 5
    magnetic_moment: 0.00000000

displacements:
- atom:    1
  displacement:
    [   0.0100000000000000, -0.0000000000000000, -0.0000000000000000 ]
  forces:
  - [  -0.1338718319357510,  0.0000000044614941,  0.0000000080906527 ]
  - [  -0.0172023846075552, -0.0000000080560975, -0.0000000068453984 ]
  - [   0.0085180024482076,  0.0000000029590483, -0.0000000060782315 ]
  - [   0.0085179999101121, -0.0000000051120722,  0.0000000005265750 ]
  - [   0.0336589450643360,  0.0247060759774742,  0.0247060730908757 ]
  - [   0.0336589473490961, -0.0247060727910652, -0.0247060765254219 ]
  - [   0.0333601609365110, -0.0241181007543293,  0.0241181094496161 ]
  - [   0.0333601608350437,  0.0241181033155477, -0.0241181017086677 ]
