phonopy:
  version: "2.38.2"
  frequency_unit_conversion_factor: 15.633304
  symmetry_tolerance: 1.00000e-05

magnetic_space_group:
  uni_number: 1631
  msg_type: 2

supercell_matrix:
- [  -1,   1,   1 ]
- [   1,  -1,   1 ]
- [   1,   1,  -1 ]

primitive_cell:
  lattice:
  - [     0.000000000000000,     2.713033762910000,     2.713033762910000 ] # a
  - [     2.713033762910000,     0.000000000000000,     2.713033762910000 ] # b
  - [     2.713033762910000,     2.713033762910000,     0.000000000000000 ] # c
  points:
  - symbol: Si # 1
    coordinates: [  0.000000000000000,  0.000000000000000,  0.000000000000000 ]
    mass: 28.085000
    magnetic_moment: 0.00000000
  - symbol: Si # 2
    coordinates: [  0.250000000000000,  0.250000000000000,  0.250000000000000 ]
    mass: 28.085000
    magnetic_moment: 0.00000000
  reciprocal_lattice: # without 2pi
  - [    -0.184295531753243,     0.184295531753243,     0.184295531753243 ] # a*
  - [     0.184295531753243,    -0.184295531753243,     0.184295531753243 ] # b*
  - [     0.184295531753243,     0.184295531753243,    -0.184295531753243 ] # c*

unit_cell:
  lattice:
  - [     0.000000000000000,     2.713033762910000,     2.713033762910000 ] # a
  - [     2.713033762910000,     0.000000000000000,     2.713033762910000 ] # b
  - [     2.713033762910000,     2.713033762910000,     0.000000000000000 ] # c
  points:
  - symbol: Si # 1
    coordinates: [  0.000000000000000,  0.000000000000000,  0.000000000000000 ]
    mass: 28.085000
    reduced_to: 1
    magnetic_moment: 0.00000000
  - symbol: Si # 2
    coordinates: [  0.250000000000000,  0.250000000000000,  0.250000000000000 ]
    mass: 28.085000
    reduced_to: 2
    magnetic_moment: 0.00000000

supercell:
  lattice:
  - [     5.426067525820000,    -0.000000000000000,    -0.000000000000000 ] # a
  - [    -0.000000000000000,     5.426067525820000,     0.000000000000000 ] # b
  - [     0.000000000000000,     0.000000000000000,     5.426067525820000 ] # c
  points:
  - symbol: Si # 1
    coordinates: [  0.000000000000000,  0.000000000000000,  0.000000000000000 ]
    mass: 28.085000
    reduced_to: 1
    magnetic_moment: 0.00000000
  - symbol: Si # 2
    coordinates: [  1.000000000000000,  0.500000000000000,  0.500000000000000 ]
    mass: 28.085000
    reduced_to: 1
    magnetic_moment: 0.00000000
  - symbol: Si # 3
    coordinates: [  0.500000000000000,  0.000000000000000,  0.500000000000000 ]
    mass: 28.085000
    reduced_to: 1
    magnetic_moment: 0.00000000
  - symbol: Si # 4
    coordinates: [  0.500000000000000,  0.500000000000000,  0.000000000000000 ]
    mass: 28.085000
    reduced_to: 1
    magnetic_moment: 0.00000000
  - symbol: Si # 5
    coordinates: [  0.250000000000000,  0.250000000000000,  0.250000000000000 ]
    mass: 28.085000
    reduced_to: 5
    magnetic_moment: 0.00000000
  - symbol: Si # 6
    coordinates: [  0.250000000000000,  0.750000000000000,  0.750000000000000 ]
    mass: 28.085000
    reduced_to: 5
    magnetic_moment: 0.00000000
  - symbol: Si # 7
    coordinates: [  0.750000000000000,  0.250000000000000,  0.750000000000000 ]
    mass: 28.085000
    reduced_to: 5
    magnetic_moment: 0.00000000
  - symbol: Si # 8
    coordinates: [  0.750000000000000,  0.750000000000000,  0.250000000000000 ]
    mass: 28.085000
    reduced_to: 5
    magnetic_moment: 0.00000000

displacements:
- atom:    1
  displacement:
    [   0.0100000000000000, -0.0000000000000000, -0.0000000000000000 ]
  forces:
  - [  -0.1338971472056810, -0.0000000015002805,  0.0000000048828030 ]
  - [  -0.0170101802954188, -0.0000000045566533, -0.0000000092425357 ]
  - [   0.0086400401687603,  0.0000000020425315, -0.0000000055594336 ]
  - [   0.0086400400570633, -0.0000000055556629,  0.0000000004095986 ]
  - [   0.0335516340121882,  0.0246393527127263,  0.0246393536326253 ]
  - [   0.0335516352647010, -0.0246393469875912, -0.0246393473796899 ]
  - [   0.0332619885102416, -0.0240600074276281,  0.0240600108752665 ]
  - [   0.0332619894881456,  0.0240600112725582, -0.0240600076186343 ]
