nqpoint: 200    
npath: 4      
segment_nqpoint:
- 50
- 50
- 50
- 50
labels:
- [ 'G', 'X' ]
- [ 'X', 'U|K' ]
- [ 'U|K', 'G' ]
- [ 'G', 'L' ]
reciprocal_lattice:
- [  -0.18488278,   0.18488278,   0.18488278 ] # a*
- [   0.18488278,  -0.18488278,   0.18488278 ] # b*
- [   0.18488278,   0.18488278,  -0.18488278 ] # c*
natom: 2      
lattice:
- [     0.000000000100000,     2.704416287198000,     2.704416287167000 ] # a
- [     2.704416294294000,     0.000000000083000,     2.704416287184000 ] # b
- [     2.704416294257000,     2.704416287179000,     0.000000000120000 ] # c
points:
- symbol: Si # 1
  coordinates: [  0.000000000008000,  0.000000000005000,  0.000000000019000 ]
  mass: 28.085000
- symbol: Si # 2
  coordinates: [  0.249999999992000,  0.249999999994999,  0.249999999981000 ]
  mass: 28.085000

phonon:
- q-position: [    0.0000000,    0.0000000,    0.0000000 ]
  distance:    0.0000000
  band:
  - # 1
    frequency:   -0.0000001819
  - # 2
    frequency:   -0.0000001287
  - # 3
    frequency:    0.0000001242
  - # 4
    frequency:   15.4411768341
  - # 5
    frequency:   15.4411768543
  - # 6
    frequency:   15.4411768745

- q-position: [    0.0102041,    0.0000000,    0.0102041 ]
  distance:    0.0037731
  band:
  - # 1
    frequency:    0.2474888295
  - # 2
    frequency:    0.2474888299
  - # 3
    frequency:    0.2474888302
  - # 4
    frequency:   15.4391933501
  - # 5
    frequency:   15.4391933703
  - # 6
    frequency:   15.4391933905

- q-position: [    0.0204082,    0.0000000,    0.0204082 ]
  distance:    0.0075462
  band:
  - # 1
    frequency:    0.4949140771
  - # 2
    frequency:    0.4949140777
  - # 3
    frequency:    0.4949140784
  - # 4
    frequency:   15.4332434076
  - # 5
    frequency:   15.4332434278
  - # 6
    frequency:   15.4332434480

- q-position: [    0.0306122,    0.0000000,    0.0306122 ]
  distance:    0.0113194
  band:
  - # 1
    frequency:    0.7422121771
  - # 2
    frequency:    0.7422121781
  - # 3
    frequency:    0.7422121790
  - # 4
    frequency:   15.4233285353
  - # 5
    frequency:   15.4233285554
  - # 6
    frequency:   15.4233285756

- q-position: [    0.0408163,    0.0000000,    0.0408163 ]
  distance:    0.0150925
  band:
  - # 1
    frequency:    0.9893195965
  - # 2
    frequency:    0.9893195978
  - # 3
    frequency:    0.9893195991
  - # 4
    frequency:   15.4094512802
  - # 5
    frequency:   15.4094513004
  - # 6
    frequency:   15.4094513206

- q-position: [    0.0510204,    0.0000000,    0.0510204 ]
  distance:    0.0188656
  band:
  - # 1
    frequency:    1.2361728514
  - # 2
    frequency:    1.2361728531
  - # 3
    frequency:    1.2361728547
  - # 4
    frequency:   15.3916152078
  - # 5
    frequency:   15.3916152279
  - # 6
    frequency:   15.3916152481

- q-position: [    0.0612245,    0.0000000,    0.0612245 ]
  distance:    0.0226387
  band:
  - # 1
    frequency:    1.4827085232
  - # 2
    frequency:    1.4827085251
  - # 3
    frequency:    1.4827085271
  - # 4
    frequency:   15.3698249000
  - # 5
    frequency:   15.3698249201
  - # 6
    frequency:   15.3698249403

- q-position: [    0.0714286,    0.0000000,    0.0714286 ]
  distance:    0.0264118
  band:
  - # 1
    frequency:    1.7288632747
  - # 2
    frequency:    1.7288632769
  - # 3
    frequency:    1.7288632792
  - # 4
    frequency:   15.3440859552
  - # 5
    frequency:   15.3440859753
  - # 6
    frequency:   15.3440859954

- q-position: [    0.0816327,    0.0000000,    0.0816327 ]
  distance:    0.0301849
  band:
  - # 1
    frequency:    1.9745738666
  - # 2
    frequency:    1.9745738692
  - # 3
    frequency:    1.9745738718
  - # 4
    frequency:   15.3144049858
  - # 5
    frequency:   15.3144050058
  - # 6
    frequency:   15.3144050258

- q-position: [    0.0918367,    0.0000000,    0.0918367 ]
  distance:    0.0339581
  band:
  - # 1
    frequency:    2.2197771740
  - # 2
    frequency:    2.2197771769
  - # 3
    frequency:    2.2197771798
  - # 4
    frequency:   15.2807896170
  - # 5
    frequency:   15.2807896370
  - # 6
    frequency:   15.2807896570

- q-position: [    0.1020408,    0.0000000,    0.1020408 ]
  distance:    0.0377312
  band:
  - # 1
    frequency:    2.4644102019
  - # 2
    frequency:    2.4644102051
  - # 3
    frequency:    2.4644102084
  - # 4
    frequency:   15.2432484851
  - # 5
    frequency:   15.2432485051
  - # 6
    frequency:   15.2432485250

- q-position: [    0.1122449,    0.0000000,    0.1122449 ]
  distance:    0.0415043
  band:
  - # 1
    frequency:    2.7084101022
  - # 2
    frequency:    2.7084101057
  - # 3
    frequency:    2.7084101093
  - # 4
    frequency:   15.2017912346
  - # 5
    frequency:   15.2017912545
  - # 6
    frequency:   15.2017912744

- q-position: [    0.1224490,    0.0000000,    0.1224490 ]
  distance:    0.0452774
  band:
  - # 1
    frequency:    2.9517141891
  - # 2
    frequency:    2.9517141930
  - # 3
    frequency:    2.9517141969
  - # 4
    frequency:   15.1564285162
  - # 5
    frequency:   15.1564285361
  - # 6
    frequency:   15.1564285559

- q-position: [    0.1326531,    0.0000000,    0.1326531 ]
  distance:    0.0490505
  band:
  - # 1
    frequency:    3.1942599559
  - # 2
    frequency:    3.1942599601
  - # 3
    frequency:    3.1942599643
  - # 4
    frequency:   15.1071719841
  - # 5
    frequency:   15.1071720038
  - # 6
    frequency:   15.1071720236

- q-position: [    0.1428571,    0.0000000,    0.1428571 ]
  distance:    0.0528237
  band:
  - # 1
    frequency:    3.4359850905
  - # 2
    frequency:    3.4359850950
  - # 3
    frequency:    3.4359850995
  - # 4
    frequency:   15.0540342925
  - # 5
    frequency:   15.0540343122
  - # 6
    frequency:   15.0540343319

- q-position: [    0.1530612,    0.0000000,    0.1530612 ]
  distance:    0.0565968
  band:
  - # 1
    frequency:    3.6768274917
  - # 2
    frequency:    3.6768274965
  - # 3
    frequency:    3.6768275013
  - # 4
    frequency:   14.9970290931
  - # 5
    frequency:   14.9970291127
  - # 6
    frequency:   14.9970291324

- q-position: [    0.1632653,    0.0000000,    0.1632653 ]
  distance:    0.0603699
  band:
  - # 1
    frequency:    3.9167252849
  - # 2
    frequency:    3.9167252901
  - # 3
    frequency:    3.9167252952
  - # 4
    frequency:   14.9361710309
  - # 5
    frequency:   14.9361710505
  - # 6
    frequency:   14.9361710700

- q-position: [    0.1734694,    0.0000000,    0.1734694 ]
  distance:    0.0641430
  band:
  - # 1
    frequency:    4.1556168386
  - # 2
    frequency:    4.1556168440
  - # 3
    frequency:    4.1556168495
  - # 4
    frequency:   14.8714757409
  - # 5
    frequency:   14.8714757604
  - # 6
    frequency:   14.8714757799

- q-position: [    0.1836735,    0.0000000,    0.1836735 ]
  distance:    0.0679161
  band:
  - # 1
    frequency:    4.3934407794
  - # 2
    frequency:    4.3934407851
  - # 3
    frequency:    4.3934407909
  - # 4
    frequency:   14.8029598439
  - # 5
    frequency:   14.8029598633
  - # 6
    frequency:   14.8029598827

- q-position: [    0.1938776,    0.0000000,    0.1938776 ]
  distance:    0.0716892
  band:
  - # 1
    frequency:    4.6301360083
  - # 2
    frequency:    4.6301360143
  - # 3
    frequency:    4.6301360204
  - # 4
    frequency:   14.7306409422
  - # 5
    frequency:   14.7306409614
  - # 6
    frequency:   14.7306409807

- q-position: [    0.2040816,    0.0000000,    0.2040816 ]
  distance:    0.0754624
  band:
  - # 1
    frequency:    4.8656417164
  - # 2
    frequency:    4.8656417228
  - # 3
    frequency:    4.8656417291
  - # 4
    frequency:   14.6545376150
  - # 5
    frequency:   14.6545376342
  - # 6
    frequency:   14.6545376534

- q-position: [    0.2142857,    0.0000000,    0.2142857 ]
  distance:    0.0792355
  band:
  - # 1
    frequency:    5.0998974003
  - # 2
    frequency:    5.0998974069
  - # 3
    frequency:    5.0998974136
  - # 4
    frequency:   14.5746694141
  - # 5
    frequency:   14.5746694331
  - # 6
    frequency:   14.5746694522

- q-position: [    0.2244898,    0.0000000,    0.2244898 ]
  distance:    0.0830086
  band:
  - # 1
    frequency:    5.3328428776
  - # 2
    frequency:    5.3328428846
  - # 3
    frequency:    5.3328428916
  - # 4
    frequency:   14.4910568581
  - # 5
    frequency:   14.4910568771
  - # 6
    frequency:   14.4910568960

- q-position: [    0.2346939,    0.0000000,    0.2346939 ]
  distance:    0.0867817
  band:
  - # 1
    frequency:    5.5644183029
  - # 2
    frequency:    5.5644183102
  - # 3
    frequency:    5.5644183175
  - # 4
    frequency:   14.4037214279
  - # 5
    frequency:   14.4037214468
  - # 6
    frequency:   14.4037214656

- q-position: [    0.2448980,    0.0000000,    0.2448980 ]
  distance:    0.0905548
  band:
  - # 1
    frequency:    5.7945641824
  - # 2
    frequency:    5.7945641899
  - # 3
    frequency:    5.7945641975
  - # 4
    frequency:   14.3126855607
  - # 5
    frequency:   14.3126855794
  - # 6
    frequency:   14.3126855982

- q-position: [    0.2551020,    0.0000000,    0.2551020 ]
  distance:    0.0943279
  band:
  - # 1
    frequency:    6.0232213896
  - # 2
    frequency:    6.0232213975
  - # 3
    frequency:    6.0232214054
  - # 4
    frequency:   14.2179726443
  - # 5
    frequency:   14.2179726629
  - # 6
    frequency:   14.2179726815

- q-position: [    0.2653061,    0.0000000,    0.2653061 ]
  distance:    0.0981011
  band:
  - # 1
    frequency:    6.2503311807
  - # 2
    frequency:    6.2503311888
  - # 3
    frequency:    6.2503311970
  - # 4
    frequency:   14.1196070113
  - # 5
    frequency:   14.1196070298
  - # 6
    frequency:   14.1196070483

- q-position: [    0.2755102,    0.0000000,    0.2755102 ]
  distance:    0.1018742
  band:
  - # 1
    frequency:    6.4758352091
  - # 2
    frequency:    6.4758352176
  - # 3
    frequency:    6.4758352261
  - # 4
    frequency:   14.0176139327
  - # 5
    frequency:   14.0176139510
  - # 6
    frequency:   14.0176139694

- q-position: [    0.2857143,    0.0000000,    0.2857143 ]
  distance:    0.1056473
  band:
  - # 1
    frequency:    6.6996755412
  - # 2
    frequency:    6.6996755499
  - # 3
    frequency:    6.6996755587
  - # 4
    frequency:   13.9120196113
  - # 5
    frequency:   13.9120196295
  - # 6
    frequency:   13.9120196477

- q-position: [    0.2959184,    0.0000000,    0.2959184 ]
  distance:    0.1094204
  band:
  - # 1
    frequency:    6.9217946703
  - # 2
    frequency:    6.9217946793
  - # 3
    frequency:    6.9217946884
  - # 4
    frequency:   13.8028511752
  - # 5
    frequency:   13.8028511933
  - # 6
    frequency:   13.8028512114

- q-position: [    0.3061224,    0.0000000,    0.3061224 ]
  distance:    0.1131935
  band:
  - # 1
    frequency:    7.1421355322
  - # 2
    frequency:    7.1421355415
  - # 3
    frequency:    7.1421355509
  - # 4
    frequency:   13.6901366707
  - # 5
    frequency:   13.6901366886
  - # 6
    frequency:   13.6901367065

- q-position: [    0.3163265,    0.0000000,    0.3163265 ]
  distance:    0.1169667
  band:
  - # 1
    frequency:    7.3606415194
  - # 2
    frequency:    7.3606415291
  - # 3
    frequency:    7.3606415387
  - # 4
    frequency:   13.5739050551
  - # 5
    frequency:   13.5739050729
  - # 6
    frequency:   13.5739050906

- q-position: [    0.3265306,    0.0000000,    0.3265306 ]
  distance:    0.1207398
  band:
  - # 1
    frequency:    7.5772564961
  - # 2
    frequency:    7.5772565060
  - # 3
    frequency:    7.5772565159
  - # 4
    frequency:   13.4541861892
  - # 5
    frequency:   13.4541862068
  - # 6
    frequency:   13.4541862245

- q-position: [    0.3367347,    0.0000000,    0.3367347 ]
  distance:    0.1245129
  band:
  - # 1
    frequency:    7.7919248119
  - # 2
    frequency:    7.7919248221
  - # 3
    frequency:    7.7919248323
  - # 4
    frequency:   13.3310108299
  - # 5
    frequency:   13.3310108474
  - # 6
    frequency:   13.3310108648

- q-position: [    0.3469388,    0.0000000,    0.3469388 ]
  distance:    0.1282860
  band:
  - # 1
    frequency:    8.0045913168
  - # 2
    frequency:    8.0045913272
  - # 3
    frequency:    8.0045913377
  - # 4
    frequency:   13.2044106220
  - # 5
    frequency:   13.2044106393
  - # 6
    frequency:   13.2044106565

- q-position: [    0.3571429,    0.0000000,    0.3571429 ]
  distance:    0.1320591
  band:
  - # 1
    frequency:    8.2152013749
  - # 2
    frequency:    8.2152013856
  - # 3
    frequency:    8.2152013964
  - # 4
    frequency:   13.0744180900
  - # 5
    frequency:   13.0744181071
  - # 6
    frequency:   13.0744181242

- q-position: [    0.3673469,    0.0000000,    0.3673469 ]
  distance:    0.1358322
  band:
  - # 1
    frequency:    8.4237008788
  - # 2
    frequency:    8.4237008898
  - # 3
    frequency:    8.4237009008
  - # 4
    frequency:   12.9410666302
  - # 5
    frequency:   12.9410666471
  - # 6
    frequency:   12.9410666641

- q-position: [    0.3775510,    0.0000000,    0.3775510 ]
  distance:    0.1396054
  band:
  - # 1
    frequency:    8.6300362631
  - # 2
    frequency:    8.6300362744
  - # 3
    frequency:    8.6300362857
  - # 4
    frequency:   12.8043905017
  - # 5
    frequency:   12.8043905184
  - # 6
    frequency:   12.8043905352

- q-position: [    0.3877551,    0.0000000,    0.3877551 ]
  distance:    0.1433785
  band:
  - # 1
    frequency:    8.8341545187
  - # 2
    frequency:    8.8341545302
  - # 3
    frequency:    8.8341545418
  - # 4
    frequency:   12.6644248177
  - # 5
    frequency:   12.6644248342
  - # 6
    frequency:   12.6644248508

- q-position: [    0.3979592,    0.0000000,    0.3979592 ]
  distance:    0.1471516
  band:
  - # 1
    frequency:    9.0360032057
  - # 2
    frequency:    9.0360032176
  - # 3
    frequency:    9.0360032294
  - # 4
    frequency:   12.5212055365
  - # 5
    frequency:   12.5212055529
  - # 6
    frequency:   12.5212055693

- q-position: [    0.4081633,    0.0000000,    0.4081633 ]
  distance:    0.1509247
  band:
  - # 1
    frequency:    9.2355304677
  - # 2
    frequency:    9.2355304797
  - # 3
    frequency:    9.2355304918
  - # 4
    frequency:   12.3747694525
  - # 5
    frequency:   12.3747694687
  - # 6
    frequency:   12.3747694849

- q-position: [    0.4183673,    0.0000000,    0.4183673 ]
  distance:    0.1546978
  band:
  - # 1
    frequency:    9.4326850442
  - # 2
    frequency:    9.4326850566
  - # 3
    frequency:    9.4326850689
  - # 4
    frequency:   12.2251541863
  - # 5
    frequency:   12.2251542023
  - # 6
    frequency:   12.2251542183

- q-position: [    0.4285714,    0.0000000,    0.4285714 ]
  distance:    0.1584710
  band:
  - # 1
    frequency:    9.6274162848
  - # 2
    frequency:    9.6274162974
  - # 3
    frequency:    9.6274163100
  - # 4
    frequency:   12.0723981753
  - # 5
    frequency:   12.0723981911
  - # 6
    frequency:   12.0723982069

- q-position: [    0.4387755,    0.0000000,    0.4387755 ]
  distance:    0.1622441
  band:
  - # 1
    frequency:    9.8196741612
  - # 2
    frequency:    9.8196741740
  - # 3
    frequency:    9.8196741869
  - # 4
    frequency:   11.9165406637
  - # 5
    frequency:   11.9165406793
  - # 6
    frequency:   11.9165406949

- q-position: [    0.4489796,    0.0000000,    0.4489796 ]
  distance:    0.1660172
  band:
  - # 1
    frequency:   10.0094092808
  - # 2
    frequency:   10.0094092939
  - # 3
    frequency:   10.0094093070
  - # 4
    frequency:   11.7576216928
  - # 5
    frequency:   11.7576217082
  - # 6
    frequency:   11.7576217236

- q-position: [    0.4591837,    0.0000000,    0.4591837 ]
  distance:    0.1697903
  band:
  - # 1
    frequency:   10.1965728992
  - # 2
    frequency:   10.1965729125
  - # 3
    frequency:   10.1965729259
  - # 4
    frequency:   11.5956820901
  - # 5
    frequency:   11.5956821053
  - # 6
    frequency:   11.5956821204

- q-position: [    0.4693878,    0.0000000,    0.4693878 ]
  distance:    0.1735634
  band:
  - # 1
    frequency:   10.3811169323
  - # 2
    frequency:   10.3811169458
  - # 3
    frequency:   10.3811169594
  - # 4
    frequency:   11.4307634592
  - # 5
    frequency:   11.4307634742
  - # 6
    frequency:   11.4307634892

- q-position: [    0.4795918,    0.0000000,    0.4795918 ]
  distance:    0.1773365
  band:
  - # 1
    frequency:   10.5629939692
  - # 2
    frequency:   10.5629939830
  - # 3
    frequency:   10.5629939969
  - # 4
    frequency:   11.2629081692
  - # 5
    frequency:   11.2629081840
  - # 6
    frequency:   11.2629081987

- q-position: [    0.4897959,    0.0000000,    0.4897959 ]
  distance:    0.1811097
  band:
  - # 1
    frequency:   10.7421572843
  - # 2
    frequency:   10.7421572983
  - # 3
    frequency:   10.7421573124
  - # 4
    frequency:   11.0921593435
  - # 5
    frequency:   11.0921593580
  - # 6
    frequency:   11.0921593726

- q-position: [    0.5000000,    0.0000000,    0.5000000 ]
  distance:    0.1848828
  band:
  - # 1
    frequency:   10.9185608346
  - # 2
    frequency:   10.9185608632
  - # 3
    frequency:   10.9185608632
  - # 4
    frequency:   10.9185608632
  - # 5
    frequency:   10.9185608632
  - # 6
    frequency:   10.9185608918

- q-position: [    0.5000000,    0.0000000,    0.5000000 ]
  distance:    0.1848828
  band:
  - # 1
    frequency:   10.9185608346
  - # 2
    frequency:   10.9185608632
  - # 3
    frequency:   10.9185608632
  - # 4
    frequency:   10.9185608632
  - # 5
    frequency:   10.9185608632
  - # 6
    frequency:   10.9185608918

- q-position: [    0.5025510,    0.0051020,    0.5025510 ]
  distance:    0.1862168
  band:
  - # 1
    frequency:   10.9182102095
  - # 2
    frequency:   10.9182102238
  - # 3
    frequency:   10.9182102381
  - # 4
    frequency:   10.9189114770
  - # 5
    frequency:   10.9189114913
  - # 6
    frequency:   10.9189115056

- q-position: [    0.5051020,    0.0102041,    0.5051020 ]
  distance:    0.1875508
  band:
  - # 1
    frequency:   10.9171583139
  - # 2
    frequency:   10.9171583282
  - # 3
    frequency:   10.9171583425
  - # 4
    frequency:   10.9199632038
  - # 5
    frequency:   10.9199632181
  - # 6
    frequency:   10.9199632324

- q-position: [    0.5076531,    0.0153061,    0.5076531 ]
  distance:    0.1888848
  band:
  - # 1
    frequency:   10.9154052296
  - # 2
    frequency:   10.9154052439
  - # 3
    frequency:   10.9154052582
  - # 4
    frequency:   10.9217155564
  - # 5
    frequency:   10.9217155707
  - # 6
    frequency:   10.9217155850

- q-position: [    0.5102041,    0.0204082,    0.5102041 ]
  distance:    0.1902188
  band:
  - # 1
    frequency:   10.9129510692
  - # 2
    frequency:   10.9129510835
  - # 3
    frequency:   10.9129510978
  - # 4
    frequency:   10.9241677478
  - # 5
    frequency:   10.9241677621
  - # 6
    frequency:   10.9241677764

- q-position: [    0.5127551,    0.0255102,    0.5127551 ]
  distance:    0.1915528
  band:
  - # 1
    frequency:   10.9097959904
  - # 2
    frequency:   10.9097960047
  - # 3
    frequency:   10.9097960190
  - # 4
    frequency:   10.9273186771
  - # 5
    frequency:   10.9273186914
  - # 6
    frequency:   10.9273187057

- q-position: [    0.5153061,    0.0306122,    0.5153061 ]
  distance:    0.1928868
  band:
  - # 1
    frequency:   10.9059401958
  - # 2
    frequency:   10.9059402100
  - # 3
    frequency:   10.9059402243
  - # 4
    frequency:   10.9311669308
  - # 5
    frequency:   10.9311669451
  - # 6
    frequency:   10.9311669594

- q-position: [    0.5178571,    0.0357143,    0.5178571 ]
  distance:    0.1942208
  band:
  - # 1
    frequency:   10.9013839329
  - # 2
    frequency:   10.9013839472
  - # 3
    frequency:   10.9013839615
  - # 4
    frequency:   10.9357107848
  - # 5
    frequency:   10.9357107991
  - # 6
    frequency:   10.9357108134

- q-position: [    0.5204082,    0.0408163,    0.5204082 ]
  distance:    0.1955548
  band:
  - # 1
    frequency:   10.8961274946
  - # 2
    frequency:   10.8961275089
  - # 3
    frequency:   10.8961275232
  - # 4
    frequency:   10.9409482059
  - # 5
    frequency:   10.9409482202
  - # 6
    frequency:   10.9409482345

- q-position: [    0.5229592,    0.0459184,    0.5229592 ]
  distance:    0.1968888
  band:
  - # 1
    frequency:   10.8901712184
  - # 2
    frequency:   10.8901712326
  - # 3
    frequency:   10.8901712469
  - # 4
    frequency:   10.9468768540
  - # 5
    frequency:   10.9468768683
  - # 6
    frequency:   10.9468768826

- q-position: [    0.5255102,    0.0510204,    0.5255102 ]
  distance:    0.1982228
  band:
  - # 1
    frequency:   10.8835154868
  - # 2
    frequency:   10.8835155011
  - # 3
    frequency:   10.8835155153
  - # 4
    frequency:   10.9534940850
  - # 5
    frequency:   10.9534940994
  - # 6
    frequency:   10.9534941137

- q-position: [    0.5280612,    0.0561224,    0.5280612 ]
  distance:    0.1995568
  band:
  - # 1
    frequency:   10.8761607274
  - # 2
    frequency:   10.8761607416
  - # 3
    frequency:   10.8761607559
  - # 4
    frequency:   10.9607969534
  - # 5
    frequency:   10.9607969678
  - # 6
    frequency:   10.9607969821

- q-position: [    0.5306122,    0.0612245,    0.5306122 ]
  distance:    0.2008908
  band:
  - # 1
    frequency:   10.8681074125
  - # 2
    frequency:   10.8681074267
  - # 3
    frequency:   10.8681074409
  - # 4
    frequency:   10.9687822156
  - # 5
    frequency:   10.9687822300
  - # 6
    frequency:   10.9687822443

- q-position: [    0.5331633,    0.0663265,    0.5331633 ]
  distance:    0.2022248
  band:
  - # 1
    frequency:   10.8593560593
  - # 2
    frequency:   10.8593560735
  - # 3
    frequency:   10.8593560877
  - # 4
    frequency:   10.9774463333
  - # 5
    frequency:   10.9774463476
  - # 6
    frequency:   10.9774463620

- q-position: [    0.5357143,    0.0714286,    0.5357143 ]
  distance:    0.2035588
  band:
  - # 1
    frequency:   10.8499072300
  - # 2
    frequency:   10.8499072442
  - # 3
    frequency:   10.8499072584
  - # 4
    frequency:   10.9867854772
  - # 5
    frequency:   10.9867854916
  - # 6
    frequency:   10.9867855060

- q-position: [    0.5382653,    0.0765306,    0.5382653 ]
  distance:    0.2048928
  band:
  - # 1
    frequency:   10.8397615315
  - # 2
    frequency:   10.8397615456
  - # 3
    frequency:   10.8397615598
  - # 4
    frequency:   10.9967955316
  - # 5
    frequency:   10.9967955460
  - # 6
    frequency:   10.9967955604

- q-position: [    0.5408163,    0.0816327,    0.5408163 ]
  distance:    0.2062268
  band:
  - # 1
    frequency:   10.8289196153
  - # 2
    frequency:   10.8289196294
  - # 3
    frequency:   10.8289196436
  - # 4
    frequency:   11.0074720980
  - # 5
    frequency:   11.0074721124
  - # 6
    frequency:   11.0074721268

- q-position: [    0.5433673,    0.0867347,    0.5433673 ]
  distance:    0.2075608
  band:
  - # 1
    frequency:   10.8173821778
  - # 2
    frequency:   10.8173821920
  - # 3
    frequency:   10.8173822061
  - # 4
    frequency:   11.0188105003
  - # 5
    frequency:   11.0188105147
  - # 6
    frequency:   11.0188105292

- q-position: [    0.5459184,    0.0918367,    0.5459184 ]
  distance:    0.2088948
  band:
  - # 1
    frequency:   10.8051499601
  - # 2
    frequency:   10.8051499742
  - # 3
    frequency:   10.8051499884
  - # 4
    frequency:   11.0308057893
  - # 5
    frequency:   11.0308058038
  - # 6
    frequency:   11.0308058182

- q-position: [    0.5484694,    0.0969388,    0.5484694 ]
  distance:    0.2102288
  band:
  - # 1
    frequency:   10.7922237478
  - # 2
    frequency:   10.7922237619
  - # 3
    frequency:   10.7922237761
  - # 4
    frequency:   11.0434527481
  - # 5
    frequency:   11.0434527626
  - # 6
    frequency:   11.0434527770

- q-position: [    0.5510204,    0.1020408,    0.5510204 ]
  distance:    0.2115628
  band:
  - # 1
    frequency:   10.7786043711
  - # 2
    frequency:   10.7786043852
  - # 3
    frequency:   10.7786043994
  - # 4
    frequency:   11.0567458971
  - # 5
    frequency:   11.0567459116
  - # 6
    frequency:   11.0567459260

- q-position: [    0.5535714,    0.1071429,    0.5535714 ]
  distance:    0.2128968
  band:
  - # 1
    frequency:   10.7642927049
  - # 2
    frequency:   10.7642927189
  - # 3
    frequency:   10.7642927330
  - # 4
    frequency:   11.0706794998
  - # 5
    frequency:   11.0706795142
  - # 6
    frequency:   11.0706795287

- q-position: [    0.5561224,    0.1122449,    0.5561224 ]
  distance:    0.2142307
  band:
  - # 1
    frequency:   10.7492896682
  - # 2
    frequency:   10.7492896822
  - # 3
    frequency:   10.7492896963
  - # 4
    frequency:   11.0852475684
  - # 5
    frequency:   11.0852475829
  - # 6
    frequency:   11.0852475974

- q-position: [    0.5586735,    0.1173469,    0.5586735 ]
  distance:    0.2155647
  band:
  - # 1
    frequency:   10.7335962247
  - # 2
    frequency:   10.7335962387
  - # 3
    frequency:   10.7335962528
  - # 4
    frequency:   11.1004438698
  - # 5
    frequency:   11.1004438844
  - # 6
    frequency:   11.1004438989

- q-position: [    0.5612245,    0.1224490,    0.5612245 ]
  distance:    0.2168987
  band:
  - # 1
    frequency:   10.7172133824
  - # 2
    frequency:   10.7172133964
  - # 3
    frequency:   10.7172134105
  - # 4
    frequency:   11.1162619319
  - # 5
    frequency:   11.1162619464
  - # 6
    frequency:   11.1162619610

- q-position: [    0.5637755,    0.1275510,    0.5637755 ]
  distance:    0.2182327
  band:
  - # 1
    frequency:   10.7001421935
  - # 2
    frequency:   10.7001422075
  - # 3
    frequency:   10.7001422215
  - # 4
    frequency:   11.1326950493
  - # 5
    frequency:   11.1326950639
  - # 6
    frequency:   11.1326950785

- q-position: [    0.5663265,    0.1326531,    0.5663265 ]
  distance:    0.2195667
  band:
  - # 1
    frequency:   10.6823837545
  - # 2
    frequency:   10.6823837685
  - # 3
    frequency:   10.6823837825
  - # 4
    frequency:   11.1497362903
  - # 5
    frequency:   11.1497363049
  - # 6
    frequency:   11.1497363195

- q-position: [    0.5688776,    0.1377551,    0.5688776 ]
  distance:    0.2209007
  band:
  - # 1
    frequency:   10.6639392059
  - # 2
    frequency:   10.6639392199
  - # 3
    frequency:   10.6639392338
  - # 4
    frequency:   11.1673785033
  - # 5
    frequency:   11.1673785179
  - # 6
    frequency:   11.1673785325

- q-position: [    0.5714286,    0.1428571,    0.5714286 ]
  distance:    0.2222347
  band:
  - # 1
    frequency:   10.6448097325
  - # 2
    frequency:   10.6448097464
  - # 3
    frequency:   10.6448097603
  - # 4
    frequency:   11.1856143230
  - # 5
    frequency:   11.1856143376
  - # 6
    frequency:   11.1856143523

- q-position: [    0.5739796,    0.1479592,    0.5739796 ]
  distance:    0.2235687
  band:
  - # 1
    frequency:   10.6249965628
  - # 2
    frequency:   10.6249965767
  - # 3
    frequency:   10.6249965906
  - # 4
    frequency:   11.2044361779
  - # 5
    frequency:   11.2044361925
  - # 6
    frequency:   11.2044362072

- q-position: [    0.5765306,    0.1530612,    0.5765306 ]
  distance:    0.2249027
  band:
  - # 1
    frequency:   10.6045009694
  - # 2
    frequency:   10.6045009833
  - # 3
    frequency:   10.6045009971
  - # 4
    frequency:   11.2238362966
  - # 5
    frequency:   11.2238363113
  - # 6
    frequency:   11.2238363260

- q-position: [    0.5790816,    0.1581633,    0.5790816 ]
  distance:    0.2262367
  band:
  - # 1
    frequency:   10.5833242687
  - # 2
    frequency:   10.5833242826
  - # 3
    frequency:   10.5833242964
  - # 4
    frequency:   11.2438067151
  - # 5
    frequency:   11.2438067298
  - # 6
    frequency:   11.2438067445

- q-position: [    0.5816327,    0.1632653,    0.5816327 ]
  distance:    0.2275707
  band:
  - # 1
    frequency:   10.5614678209
  - # 2
    frequency:   10.5614678347
  - # 3
    frequency:   10.5614678486
  - # 4
    frequency:   11.2643392833
  - # 5
    frequency:   11.2643392981
  - # 6
    frequency:   11.2643393128

- q-position: [    0.5841837,    0.1683673,    0.5841837 ]
  distance:    0.2289047
  band:
  - # 1
    frequency:   10.5389330298
  - # 2
    frequency:   10.5389330436
  - # 3
    frequency:   10.5389330574
  - # 4
    frequency:   11.2854256728
  - # 5
    frequency:   11.2854256876
  - # 6
    frequency:   11.2854257023

- q-position: [    0.5867347,    0.1734694,    0.5867347 ]
  distance:    0.2302387
  band:
  - # 1
    frequency:   10.5157213427
  - # 2
    frequency:   10.5157213564
  - # 3
    frequency:   10.5157213702
  - # 4
    frequency:   11.3070573831
  - # 5
    frequency:   11.3070573979
  - # 6
    frequency:   11.3070574127

- q-position: [    0.5892857,    0.1785714,    0.5892857 ]
  distance:    0.2315727
  band:
  - # 1
    frequency:   10.4918342504
  - # 2
    frequency:   10.4918342642
  - # 3
    frequency:   10.4918342779
  - # 4
    frequency:   11.3292257495
  - # 5
    frequency:   11.3292257644
  - # 6
    frequency:   11.3292257792

- q-position: [    0.5918367,    0.1836735,    0.5918367 ]
  distance:    0.2329067
  band:
  - # 1
    frequency:   10.4672732873
  - # 2
    frequency:   10.4672733010
  - # 3
    frequency:   10.4672733147
  - # 4
    frequency:   11.3519219497
  - # 5
    frequency:   11.3519219646
  - # 6
    frequency:   11.3519219794

- q-position: [    0.5943878,    0.1887755,    0.5943878 ]
  distance:    0.2342407
  band:
  - # 1
    frequency:   10.4420400307
  - # 2
    frequency:   10.4420400444
  - # 3
    frequency:   10.4420400580
  - # 4
    frequency:   11.3751370110
  - # 5
    frequency:   11.3751370259
  - # 6
    frequency:   11.3751370408

- q-position: [    0.5969388,    0.1938776,    0.5969388 ]
  distance:    0.2355747
  band:
  - # 1
    frequency:   10.4161361014
  - # 2
    frequency:   10.4161361151
  - # 3
    frequency:   10.4161361287
  - # 4
    frequency:   11.3988618177
  - # 5
    frequency:   11.3988618326
  - # 6
    frequency:   11.3988618475

- q-position: [    0.5994898,    0.1989796,    0.5994898 ]