2    
1    

1    
  0.0000000000002615   0.0070710678119060   0.0070710678118249
  -0.0018359857   -0.0968698576   -0.0968698598
   0.0018359857    0.0968698576    0.0968698598
