   2    2
1 1
    13.699466791023875     0.000000000000000    -0.000000000000001
    -0.000000000000001    13.699466791023877    -0.000000000000001
    -0.000000000000001    -0.000000000000002    13.699466791023868
1 2
   -13.699466791023875    -0.000000000000000     0.000000000000001
     0.000000000000001   -13.699466791023877     0.000000000000001
     0.000000000000001     0.000000000000002   -13.699466791023868
2 1
   -13.699466719310305     0.000000000643327     0.000000000174765
     0.000000000643328   -13.699466862737443     0.000000001213209
     0.000000000174766     0.000000001213208   -13.699466791023868
2 2
    13.699466719310305    -0.000000000643327    -0.000000000174765
    -0.000000000643328    13.699466862737443    -0.000000001213209
    -0.000000000174766    -0.000000001213208    13.699466791023868