phonopy:
  version: "2.19.1"
  frequency_unit_conversion_factor: 15.633304
  symmetry_tolerance: 1.00000e-05

space_group:
  type: "Fd-3m"
  number: 227
  Hall_symbol: "F 4d 2 3 -1d"

supercell_matrix:
- [   1,   0,   0 ]
- [   0,   1,   0 ]
- [   0,   0,   1 ]

primitive_cell:
  lattice:
  - [     0.000000000100000,     2.704416287198000,     2.704416287167000 ] # a
  - [     2.704416294294000,     0.000000000083000,     2.704416287184000 ] # b
  - [     2.704416294257000,     2.704416287179000,     0.000000000120000 ] # c
  points:
  - symbol: Si # 1
    coordinates: [  0.000000000008000,  0.000000000005000,  0.000000000019000 ]
    mass: 28.085000
  - symbol: Si # 2
    coordinates: [  0.249999999992000,  0.249999999994999,  0.249999999981000 ]
    mass: 28.085000
  reciprocal_lattice: # without 2pi
  - [    -0.184882778988644,     0.184882779464316,     0.184882779469033 ] # a*
  - [     0.184882778979278,    -0.184882779471357,     0.184882779466640 ] # b*
  - [     0.184882778984269,     0.184882779467050,    -0.184882779476006 ] # c*

unit_cell:
  lattice:
  - [     0.000000000100000,     2.704416287198000,     2.704416287167000 ] # a
  - [     2.704416294294000,     0.000000000083000,     2.704416287184000 ] # b
  - [     2.704416294257000,     2.704416287179000,     0.000000000120000 ] # c
  points:
  - symbol: Si # 1
    coordinates: [  0.000000000008000,  0.000000000005000,  0.000000000019000 ]
    mass: 28.085000
    reduced_to: 1
  - symbol: Si # 2
    coordinates: [  0.249999999992000,  0.249999999994999,  0.249999999981000 ]
    mass: 28.085000
    reduced_to: 2

supercell:
  lattice:
  - [     0.000000000100000,     2.704416287198000,     2.704416287167000 ] # a
  - [     2.704416294294000,     0.000000000083000,     2.704416287184000 ] # b
  - [     2.704416294257000,     2.704416287179000,     0.000000000120000 ] # c
  points:
  - symbol: Si # 1
    coordinates: [  0.000000000008000,  0.000000000005000,  0.000000000019000 ]
    mass: 28.085000
    reduced_to: 1
  - symbol: Si # 2
    coordinates: [  0.249999999992000,  0.249999999994999,  0.249999999981000 ]
    mass: 28.085000
    reduced_to: 2

displacements:
- atom:    1
  displacement:
    [   0.0000000000002615,  0.0070710678119060,  0.0070710678118249 ]
  forces:
  - [  -0.0018359857196320, -0.0968698575500596, -0.0968698597814665 ]
  - [   0.0018359857196320,  0.0968698575500596,  0.0968698597814665 ]
