------------------------------------------------------------
          Invoking FHI-aims ...

          When using FHI-aims, please cite the following reference:

            Volker Blum, Ralf Gehrke, Felix Hanke, Paula Havu,
            Ville Havu, Xinguo Ren, Karsten Reuter, and Matthias Scheffler,
            'Ab Initio Molecular Simulations with Numeric Atom-Centered Orbitals',
            Computer Physics Communications 180, 2175-2196 (2009)

          In addition, many other developments in FHI-aims are likely important for
          your particular application. If so, please cite them. A partial list of references
          is written at the end of this file. Thank you for giving credit to the authors
          of these developments.

          For general information about FHI-aims please find us at

            https://fhi-aims.org

          Online tutorials can be found at

            https://fhi-aims-club.gitlab.io/tutorials/tutorials-overview/

          For any questions about FHI-aims, please visit our slack channel at

            https://fhi-aims.slack.com

          and our main development and support site at

            https://aims-git.rz-berlin.mpg.de .

          The latter site, in particular, has a wiki to collect information, as well
          as an issue tracker to log discussions, suggest improvements, and report issues
          or bugs. https://aims-git.rz-berlin.mpg.de is also the main development site
          of the project and all new and updated code versions can be obtained there.
          Please send an email to aims-coordinators@fhi-berlin.mpg.de and we will add
          you to these sites. They are for you and everyone is welcome there.

------------------------------------------------------------



  Date     :  20250610, Time     :  142944.069
  Time zero on CPU 1             :   0.939930000000000E-01  s.
  Internal wall clock time zero  :           518797784.069  s.

  FHI-aims created a unique identifier for this run for later identification
  aims_uuid : 0B31E596-8125-4992-A147-4458E87511F0

  Build configuration of the current instance of FHI-aims
  -------------------------------------------------------
  FHI-aims version      : 240206
  Commit number         : 583c55b2e
  CMake host system     : Darwin-23.4.0
  CMake version         : 3.29.1
  Fortran compiler      : /opt/homebrew/bin/mpif90 (GNU) version 13.2.0
  Fortran compiler flags: -O3 -fallow-argument-mismatch -ffree-line-length-none -framework accelerate
  C compiler            : /opt/homebrew/bin/mpicc (AppleClang) version 15.0.0.15000309
  C compiler flags      : -O3 -framework accelerate
  C++ compiler          : /opt/homebrew/bin/mpic++ (AppleClang) version 15.0.0.15000309
  C++ compiler flags    : -O3 -framework accelerate
  HIP compiler          :
  HIP compiler flags    :
  HIP GPU arch          :
  Using MPI
  Using ScaLAPACK
  Using LibXC
  Using i-PI
  Using RLSY
  Linking against: /Users/carbogno/Codes/2023_Scalapack/libscalapack.a

  Using        8 parallel tasks.
  Task        0 on host ThMac05.local reporting.
  Task        1 on host ThMac05.local reporting.
  Task        2 on host ThMac05.local reporting.
  Task        3 on host ThMac05.local reporting.
  Task        4 on host ThMac05.local reporting.
  Task        5 on host ThMac05.local reporting.
  Task        6 on host ThMac05.local reporting.
  Task        7 on host ThMac05.local reporting.

  Memory overcommitment: We could not find /proc/sys/vm/overcommit_memory on your system.

  Obtaining array dimensions for all initial allocations:
  
  -----------------------------------------------------------------------
  Parsing control.in (first pass over file, find array dimensions only).
  The contents of control.in will be repeated verbatim below
  unless switched off by setting 'verbatim_writeout .false.' .
  in the first line of control.in .
  -----------------------------------------------------------------------
  
  #===============================================================================
  # FHI-aims file: ./control.in
  # Created using the Atomic Simulation Environment (ASE)
  # Tue Jun 10 14:29:43 2025
  #===============================================================================
  xc                                 pw-lda
  k_grid                             4 4 4
  sc_accuracy_rho                    1e-06
  relativistic                       atomic_zora scalar
  output_level                       MD_light
  use_pimd_wrapper                   localhost 10005
  #===============================================================================
  
  ################################################################################
  #
  #  FHI-aims code project
  #  VB, Fritz-Haber Institut, 2009
  #
  #  Suggested "light" defaults for Si atom (to be pasted into control.in file)
  #  Be sure to double-check any results obtained with these settings for post-processing,
  #  e.g., with the "tight" defaults and larger basis sets.
  #
  #  2020/09/08 Added f function to "light" after reinspection of Delta test outcomes.
  #             This was done for all of Al-Cl and is a tricky decision since it makes
  #             "light" calculations measurably more expensive for these elements.
  #             Nevertheless, outcomes for P, S, Cl (and to some extent, Si) appear
  #             to justify this choice.
  #
  ################################################################################
    species        Si
  #     global species definitions
      nucleus             14
      mass                28.0855
  #
      l_hartree           4
  #
      cut_pot             3.5          1.5  1.0
      basis_dep_cutoff    1e-4
  #
      radial_base         42 5.0
      radial_multiplier   1
      angular_grids       specified
        division   0.5866   50
        division   0.9616  110
        division   1.2249  194
        division   1.3795  302
  #      division   1.4810  434
  #      division   1.5529  590
  #      division   1.6284  770
  #      division   1.7077  974
  #      division   2.4068 1202
  #      outer_grid   974
        outer_grid 302
  ################################################################################
  #
  #  Definition of "minimal" basis
  #
  ################################################################################
  #     valence basis states
      valence      3  s   2.
      valence      3  p   2.
  #     ion occupancy
      ion_occ      3  s   1.
      ion_occ      3  p   1.
  ################################################################################
  #
  #  Suggested additional basis functions. For production calculations,
  #  uncomment them one after another (the most important basis functions are
  #  listed first).
  #
  #  Constructed for dimers: 1.75 A, 2.0 A, 2.25 A, 2.75 A, 3.75 A
  #
  ################################################################################
  #  "First tier" - improvements: -571.96 meV to -37.03 meV
       hydro 3 d 4.2
       hydro 2 p 1.4
       hydro 4 f 6.2
       ionic 3 s auto
  #  "Second tier" - improvements: -16.76 meV to -3.03 meV
  #     hydro 3 d 9
  #     hydro 5 g 9.4
  #     hydro 4 p 4
  #     hydro 1 s 0.65
  #  "Third tier" - improvements: -3.89 meV to -0.60 meV
  #     ionic 3 d auto
  #     hydro 3 s 2.6
  #     hydro 4 f 8.4
  #     hydro 3 d 3.4
  #     hydro 3 p 7.8
  #  "Fourth tier" - improvements: -0.33 meV to -0.11 meV
  #     hydro 2 p 1.6
  #     hydro 5 g 10.8
  #     hydro 5 f 11.2
  #     hydro 3 d 1
  #     hydro 4 s 4.5
  #  Further basis functions that fell out of the optimization - noise
  #  level... < -0.08 meV
  #     hydro 4 d 6.6
  #     hydro 5 g 16.4
  #     hydro 4 d 9
  
  -----------------------------------------------------------------------
  Completed first pass over input file control.in .
  -----------------------------------------------------------------------
  
  
  -----------------------------------------------------------------------
  Parsing geometry.in (first pass over file, find array dimensions only).
  The contents of geometry.in will be repeated verbatim below
  unless switched off by setting 'verbatim_writeout .false.' .
  in the first line of geometry.in .
  -----------------------------------------------------------------------
  
  #=======================================================
  # FHI-aims file: ./geometry.in
  # Created using the Atomic Simulation Environment (ASE)
  # Tue Jun 10 14:29:43 2025
  #=======================================================
  lattice_vector 5.4088325884509993 0.0000000000639995 0.0000000001369997
  lattice_vector 0.0000000000629998 5.4088325742939993 0.0000000001030003
  lattice_vector 0.0000000001370002 0.0000000001020002 5.4088325742309999
  atom_frac -0.0046237033209471 0.0015982515270286 -0.0109458313970106 Si
  atom_frac 0.0110371128263815 0.4888975066189363 0.4982202323079434 Si
  atom_frac 0.4895801768791740 -0.0034256728593801 0.5096910940830971 Si
  atom_frac 0.5023251971477630 0.5029319897498242 -0.0151923083535489 Si
  atom_frac 0.2647060868687856 0.2565914544051600 0.2323451701301540 Si
  atom_frac 0.2488199604614009 0.7476927736725099 0.7599805110387391 Si
  atom_frac 0.7205233723289861 0.2462324282905013 0.7621821171083663 Si
  atom_frac 0.7676317968034309 0.7594812686219634 0.2637190150830047 Si
  
  -----------------------------------------------------------------------
  Completed first pass over input file geometry.in .
  -----------------------------------------------------------------------
  

  Basic array size parameters:
  | Number of species                 :        1
  | Number of atoms                   :        8
  | Number of lattice vectors         :        3
  | Max. basis fn. angular momentum   :        3
  | Max. atomic/ionic basis occupied n:        3
  | Max. number of basis fn. types    :        3
  | Max. radial fns per species/type  :        5
  | Max. logarithmic grid size        :     1346
  | Max. radial integration grid size :       42
  | Max. angular integration grid size:      302
  | Max. angular grid division number :        8
  | Radial grid for Hartree potential :     1346
  | Number of spin channels           :        1

------------------------------------------------------------
          Reading file control.in.
------------------------------------------------------------
  XC: Using Perdew-Wang parametrisation of Ceperley-Alder LDA.
  Found k-point grid:         4         4         4
  Convergence accuracy of self-consistent charge density:  0.1000E-05
  Scalar relativistic treatment of kinetic energy: on-site free-atom approximation to ZORA.
  Requested output level: MD_light
  Using external wrapper (i-PI) for performing (path integral) molecular dynamics
  **Attention: initial geometry.in file will be ignored!

  Reading configuration options for species Si                  .
  | Found nuclear charge :  14.0000
  | Found atomic mass :    28.085500000000000      amu
  | Found l_max for Hartree potential  :   4
  | Found cutoff potl. onset [A], width [A], scale factor :    3.50000    1.50000    1.00000
  | Threshold for basis-dependent cutoff potential is   0.100000E-03
  | Found data for basic radial integration grid :    42 points, outermost radius =    5.000 A
  | Found multiplier for basic radial grid :   1
  | Found angular grid specification: user-specified.
  | Specified grid contains     5 separate shells.
  | Check grid settings after all constraints further below.
  | Found free-atom valence shell :  3 s   2.000
  | Found free-atom valence shell :  3 p   2.000
  | Found free-ion valence shell :  3 s   1.000
  | Found free-ion valence shell :  3 p   1.000
  | Found hydrogenic basis function :  3 d   4.200
  | Found hydrogenic basis function :  2 p   1.400
  | Found hydrogenic basis function :  4 f   6.200
  | Found ionic basis function :  3 s , default cutoff radius.
  Species Si                  : Missing cutoff potential type.
  Defaulting to exp(1/x)/(1-x)^2 type cutoff potential.
  Species Si: No 'logarithmic' tag. Using default grid for free atom:
  | Default logarithmic grid data [bohr] : 0.1000E-03 0.1000E+03 0.1012E+01
  | Will include ionic basis functions of  2.0-fold positive Si                   ion.
  Species Si: On-site basis accuracy parameter (for Gram-Schmidt orthonormalisation) not specified.
  Using default value basis_acc =  0.1000000E-03.
  Species Si                  : Using default innermost maximum threshold i_radial=  2 for radial functions.
  Species Si                  : Default cutoff onset for free atom density etc. : 0.35000000E+01 AA.
  Species Si                  : Basic radial grid will be enhanced according to radial_multiplier =   1, to contain    42 grid points.

  Finished reading input file 'control.in'.

------------------------------------------------------------


------------------------------------------------------------
          Reading geometry description geometry.in.
------------------------------------------------------------
  | The smallest distance between any two atoms is         2.18417242 AA.
  | The first atom of this pair is atom number                      4 .
  | The second atom of this pair is atom number                     7 .
  | Wigner-Seitz cell of the first atom image           0     1     0 .
  | (The Wigner-Seitz cell of the second atom is 0 0 0  by definition.)

  Symmetry information by spglib:
  | Precision set to  0.1E-04
  | Number of Operations  : 1
  | Space group           : 1
  | International         : P1
  | Schoenflies           : C1^1
  Input structure read successfully.
  The structure contains        8 atoms,  and a total of        112.000 electrons.

  Input geometry:
  | Unit cell:
  |        5.40883259        0.00000000        0.00000000
  |        0.00000000        5.40883257        0.00000000
  |        0.00000000        0.00000000        5.40883257
  | Atomic structure:
  |       Atom                x [A]            y [A]            z [A]
  |    1: Species Si           -0.02500884        0.00864467       -0.05920417
  |    2: Species Si            0.05969790        2.64436476        2.69478982
  |    3: Species Si            2.64805722       -0.01852889        2.75683379
  |    4: Species Si            2.71699290        2.72027493       -0.08217265
  |    5: Species Si            1.43175091        1.38786022        1.25671612
  |    6: Species Si            1.34582551        4.04414503        4.11060734
  |    7: Species Si            3.89719030        1.33182998        4.12251546
  |    8: Species Si            4.15199188        4.10790703        1.42641200

  Lattice parameters for 3D lattice (in Angstroms) :     5.408833    5.408833    5.408833
  Angle(s) between unit vectors (in degrees)       :    90.000000   90.000000   90.000000


  Quantities derived from the lattice vectors (in Angstrom^-1):
  | Reciprocal lattice vector 1:  1.161653 -0.000000 -0.000000
  | Reciprocal lattice vector 2: -0.000000  1.161653 -0.000000
  | Reciprocal lattice vector 3: -0.000000 -0.000000  1.161653
  | Unit cell volume                               :   0.158238E+03  Angstrom^3

  Slab Identifier: This seems to be a bulk system.

  Finished reading input file 'geometry.in'.



  Consistency checks for stacksize environment parameter are next.

  | Maximum stacksize for task 0: 63 [Mb]
  | Maximum stacksize for task 1: 63 [Mb]
  | Maximum stacksize for task 2: 63 [Mb]
  | Maximum stacksize for task 3: 63 [Mb]
  | Maximum stacksize for task 4: 63 [Mb]
  | Maximum stacksize for task 5: 63 [Mb]
  | Maximum stacksize for task 6: 63 [Mb]
  | Maximum stacksize for task 7: 63 [Mb]
   *** Stacksize is not set to unlimited. This might cause problems...
  | Current stacksize for task 0: 63 [Mb]
  | Current stacksize for task 1: 63 [Mb]
  | Current stacksize for task 2: 63 [Mb]
  | Current stacksize for task 3: 63 [Mb]
  | Current stacksize for task 4: 63 [Mb]
  | Current stacksize for task 5: 63 [Mb]
  | Current stacksize for task 6: 63 [Mb]
  | Current stacksize for task 7: 63 [Mb]

  Consistency checks for the contents of control.in are next.

  MPI_IN_PLACE appears to work with this MPI implementation.
  | Keeping use_mpi_in_place .true. (see manual).
  Target number of points in a grid batch is not set. Defaulting to  100
  Method for grid partitioning is not set. Defaulting to parallel hash+maxmin partitioning.
  Batch size limit is not set. Defaulting to    200
  By default, will store active basis functions for each batch.
  If in need of memory, prune_basis_once .false. can be used to disable this option.
  communication_type for Hartree potential was not specified.
  Defaulting to calc_hartree .
  Defaulting to Pulay charge density mixer.
  Pulay mixer: Number of relevant iterations not set.
  Defaulting to    8 iterations.
  Pulay mixer: Number of initial linear mixing iterations not set.
  Defaulting to    0 iterations.
  Work space size for distributed Hartree potential not set.
  Defaulting to   0.200000E+03 MB.
  Mixing parameter for charge density mixing has not been set.
  Using default: charge_mix_param =     0.0500.
  The mixing parameter will be adjusted in iteration number     2 of the first full s.c.f. cycle only.
  Algorithm-dependent basis array size parameters:
  | n_max_pulay                         :        8
  Maximum number of self-consistency iterations not provided.
  Presetting  1000 iterations.
  Presetting      1001 iterations before the initial mixing cycle
  is restarted anyway using the sc_init_iter criterion / keyword.
  Presetting a factor      1.000 between actual scf density residual
  and density convergence criterion sc_accuracy_rho below which sc_init_iter
  takes no effect.
  Calculation of forces was not defined in control.in. No forces will be calculated.
  Geometry relaxation not requested: no relaxation will be performed.
  Force calculation: scf convergence accuracy of forces not set.
  Defaulting to 'sc_accuracy_forces not_checked'.
  Handling of forces: Unphysical translation and rotation will be removed from forces.
  No accuracy limit for integral partition fn. given. Defaulting to  0.1000E-14.
  No threshold value for u(r) in integrations given. Defaulting to  0.1000E-05.
  No occupation type (smearing scheme) given. Defaulting to Gaussian broadening, width =  0.1000E-01 eV.
  The width will be adjusted in iteration number     2 of the first full s.c.f. cycle only.
  S.C.F. convergence parameters will be adjusted in iteration number     2 of the first full s.c.f. cycle only.
  No accuracy for occupation numbers given. Defaulting to  0.1000E-12.
  No threshold value for occupation numbers given. Defaulting to  0.0000E+00.
  No accuracy for fermi level given. Defaulting to  0.1000E-19.
  Maximum # of iterations to find E_F not set. Defaulting to  200.
  Preferred method for the eigenvalue solver ('KS_method') not specified in 'control.in'.
  Defaulting to serial version, LAPACK (via ELSI), since more k-points than CPUs available.
  Will not use alltoall communication since running on < 1024 CPUs.
  Threshold for basis singularities not set.
  Default threshold for basis singularities:  0.1000E-04
  partition_type (choice of integration weights) for integrals was not specified.
  | Using a version of the partition function of Stratmann and coworkers ('stratmann_sparse').
  | At each grid point, the set of atoms used to build the partition table is smoothly restricted to
  | only those atoms whose free-atom density would be non-zero at that grid point.
  Partitioning for Hartree potential was not defined. Using partition_type for integrals.
  | Adjusted default value of keyword multip_moments_threshold to:       0.10000000E-11
  | This value may affect high angular momentum components of the Hartree potential in periodic systems.
  Spin handling was not defined in control.in. Defaulting to unpolarized case.
  No q(lm)/r^(l+1) cutoff set for long-range Hartree potential.
  | Using default value of  0.100000E-09 .
  | Verify using the multipole_threshold keyword.
  Defaulting to new monopole extrapolation.
  Density update method: automatic selection selected.
  Using density matrix based charge density update.
  Using density matrix based charge density update.
  Using packed matrix style: index .
  Defaulting to use time-reversal symmetry for k-point grid.
  Charge integration errors on the 3D integration grid will be compensated
  by explicit normalization and distribution of residual charges.
  Use the "compensate_multipole_errors" flag to change this behaviour.
  Set 'collect_eigenvectors' to be '.true.' for all serial calculations. This is mandatory.
  Set 'collect_eigenvectors' to be '.true.' for KS_method lapack_fast and serial.

  Consistency checks for the contents of geometry.in are next.


  Range separation radius for Ewald summation (hartree_convergence_parameter):      3.87147161 bohr.
  Number of empty states per atom not set in control.in - providing a guess from actual geometry.
  | Total number of empty states used during s.c.f. cycle:       24
  If you use a very high smearing, use empty_states (per atom!) in control.in to increase this value.

  Structure-dependent array size parameters: 
  | Maximum number of distinct radial functions  :        9
  | Maximum number of basis functions            :      200
  | Number of Kohn-Sham states (occupied + empty):       80
------------------------------------------------------------

************************** W A R N I N G *******************************
* You are using the PIMD wrapper. Specifications and positions         *
* in geometry.in will be IGNORED - all is received from the wrapper.   *
* Please make sure species are declared in the same order in           *
* geometry.in and wrapper input.                                       *
************************************************************************


  Performing system and environment tests:
  | Environment variable OMP_NUM_THREADS correctly set to 1.
  | Checking for ScaLAPACK...
  | Testing pdtran()...
  | All pdtran() tests passed.

------------------------------------------------------------
          Preparing all fixed parts of the calculation.
------------------------------------------------------------
  Determining machine precision:
     2.2250738585072014E-308
  Setting up grids for atomic and cluster calculations.

  Creating wave function, potential, and density for free atoms.
  Runtime choices for atomic solver:
  | atomic solver xc        : PW-LDA
  | compute density gradient: 0
  | compute kinetic density : F

  Species: Si

  List of occupied orbitals and eigenvalues:
    n    l              occ      energy [Ha]    energy [eV]
    1    0           2.0000       -65.491668     -1782.1190
    2    0           2.0000        -5.087967      -138.4506
    3    0           2.0000        -0.391471       -10.6525
    2    1           6.0000        -3.502246       -95.3010
    3    1           2.0000        -0.143943        -3.9169


  Adding cutoff potential to free-atom effective potential.
  Creating fixed part of basis set: Ionic, confined, hydrogenic.

  Si                   ion:

  List of free ionic orbitals and eigenvalues:
    n    l      energy [Ha]    energy [eV]
    1    0       -66.364436     -1805.8682
    2    0        -5.935799      -161.5213
    3    0        -1.078166       -29.3384
    2    1        -4.351123      -118.4001
    3    1        -0.781733       -21.2720


  List of ionic basis orbitals and eigenvalues:
    n    l      energy [Ha]    energy [eV]    outer radius [A]
    3    0        -1.078146       -29.3378       4.214062


  Si                   hydrogenic:

  List of hydrogenic basis orbitals: 
    n    l      effective z      eigenvalue [eV]  inner max. [A]     outer max. [A]     outer radius [A]   
    3    2         4.200000       -26.6624           1.139231           1.139231           4.534782
    2    1         1.400000        -6.4613           1.472672           1.472672           4.590560
    4    3         6.200000       -32.6778           1.368518           1.368518           4.534782

  Creating atomic-like basis functions for current effective potential.

  Species Si                  :

  List of atomic basis orbitals and eigenvalues:
    n    l      energy [Ha]    energy [eV]    outer radius [A]
    1    0       -65.491668     -1782.1190       0.789468
    2    0        -5.087967      -138.4506       2.815114
    3    0        -0.391471       -10.6525       4.534782
    2    1        -3.502246       -95.3010       3.259919
    3    1        -0.143943        -3.9169       4.590560

  Assembling full basis from fixed parts.
  | Species Si :   atomic orbital   1 s accepted.
  | Species Si :   atomic orbital   2 s accepted.
  | Species Si :    ionic orbital   3 s accepted.
  | Species Si :   atomic orbital   3 s accepted.
  | Species Si :   atomic orbital   2 p accepted.
  | Species Si :   atomic orbital   3 p accepted.
  | Species Si :    hydro orbital   2 p accepted.
  | Species Si :    hydro orbital   3 d accepted.
  | Species Si :    hydro orbital   4 f accepted.

  Basis size parameters after reduction:
  | Total number of radial functions:        9
  | Total number of basis functions :      200

  Per-task memory consumption for arrays in subroutine allocate_ext:
  |           3.106072MB.
  Testing on-site integration grid accuracy.
  |  Species  Function  <phi|h_atom|phi> (log., in eV)  <phi|h_atom|phi> (rad., in eV)
           1        1              -1782.1189727076              -1782.1182429251
           1        2               -138.4506350693               -138.4506310079
           1        3                -10.3030408815                -10.3029120678
           1        4                  5.0238999146                  4.9457540310 ***
           1        5                -95.3009689499                -95.3009689315
           1        6                 -3.9266496564                 -3.9420918374
           1        7                  6.3453628447                  6.1632372158 ***
           1        8                  6.2883050744                  6.2861881409
           1        9                 19.3222464920                 19.3177041052
 * Note: Onsite integrals marked "***" above are less accurate than
 * onsite_accuracy_threshold =    0.03000 eV. Usually, this is harmless.
 * When in doubt, tighten the "radial" and/or "radial_multiplier" flags to check.

  Preparing densities etc. for the partition functions (integrals / Hartree potential).

  Preparations completed.
  max(cpu_time)          :      0.087 s.
  Wall clock time (cpu1) :      0.090 s.
------------------------------------------------------------

  Initializing index lists of integration centers etc. from given atomic structure:
  Mapping all atomic coordinates to central unit cell.

  Initializing the k-points
  Using symmetry for reducing the k-points
  | k-points reduced from:       64 to       36
  | Number of k-points                             :        36
  The eigenvectors in the calculations are COMPLEX.
  | K-points in task   0:         4
  | K-points in task   1:         5
  | K-points in task   2:         5
  | K-points in task   3:         5
  | K-points in task   4:         5
  | K-points in task   5:         4
  | K-points in task   6:         4
  | K-points in task   7:         4
  | Number of basis functions in the Hamiltonian integrals :      3164
  | Number of basis functions in a single unit cell        :       200
  | Number of centers in hartree potential         :      1046
  | Number of centers in hartree multipole         :       504
  | Number of centers in electron density summation:       332
  | Number of centers in basis integrals           :       369
  | Number of centers in integrals                 :       143
  | Number of centers in hamiltonian               :       332
  | Consuming         42 KiB for k_phase.
  | Number of super-cells (origin) [n_cells]                     :         729
  | Number of super-cells (after PM_index) [n_cells]             :          76
  | Number of super-cells in hamiltonian [n_cells_in_hamiltonian]:          76
  | Size of matrix packed + index [n_hamiltonian_matrix_size] :      353363
* Skipping the SCF initialization for now - done inside wrapper      *
  @ DRIVER MODE: Connecting to host:port localhost       10005
  @ DRIVER MODE: Message from server: STATUS      
  @ DRIVER MODE: Message from server: POSDATA     
  @ DRIVER MODE: Received positions 

  Initializing index lists of integration centers etc. from given atomic structure:
  Mapping all atomic coordinates to central unit cell.

  Initializing the k-points
  Using symmetry for reducing the k-points
  | k-points reduced from:       64 to       36
  | Number of k-points                             :        36
  The eigenvectors in the calculations are COMPLEX.
  | K-points in task   0:         4
  | K-points in task   1:         5
  | K-points in task   2:         5
  | K-points in task   3:         5
  | K-points in task   4:         5
  | K-points in task   5:         4
  | K-points in task   6:         4
  | K-points in task   7:         4
  | Number of basis functions in the Hamiltonian integrals :      3164
  | Number of basis functions in a single unit cell        :       200
  | Number of centers in hartree potential         :      1046
  | Number of centers in hartree multipole         :       504
  | Number of centers in electron density summation:       332
  | Number of centers in basis integrals           :       369
  | Number of centers in integrals                 :       143
  | Number of centers in hamiltonian               :       332
  | Consuming         42 KiB for k_phase.
  | Number of super-cells (origin) [n_cells]                     :         729
  | Number of super-cells (after PM_index) [n_cells]             :          76
  | Number of super-cells in hamiltonian [n_cells_in_hamiltonian]:          76
  | Size of matrix packed + index [n_hamiltonian_matrix_size] :      353363

------------------------------------------------------------
          Begin self-consistency loop: Initialization.

          Date     :  20250610, Time     :  142944.263
------------------------------------------------------------
  | Estimated reciprocal-space cutoff momentum G_max:         2.41181531 bohr^-1 .
  | Reciprocal lattice points for long-range Hartree potential:     250
  Partitioning the integration grid into batches with parallel hashing+maxmin method.
  | Number of batches:      603
  | Maximal batch size:     112
  | Minimal batch size:      50
  | Average batch size:      74.348
  | Standard deviation of batch sizes:      19.187

  Integration load balanced across     8 MPI tasks.
  Work distribution over tasks is as follows:
  Task     0 has       5616 integration points.
  Task     1 has       5593 integration points.
  Task     2 has       5620 integration points.
  Task     3 has       5627 integration points.
  Task     4 has       5582 integration points.
  Task     5 has       5605 integration points.
  Task     6 has       5603 integration points.
  Task     7 has       5586 integration points.
  Initializing partition tables, free-atom densities, potentials, etc. across the integration grid (initialize_grid_storage).
  | initialize_grid_storage: Actual outermost partition radius vs. multipole_radius_free
  | (-- VB: in principle, multipole_radius_free should be larger, hence this output)
  | Species        1: Confinement radius =              4.999999999999999 AA, multipole_radius_free =              5.000694715736543 AA.
  | Species        1: outer_partition_radius set to              5.000694715736543 AA .
  | The sparse table of interatomic distances needs        478.96 kbyte instead of      1089.29 kbyte of memory.
  | Net number of integration points:    44832
  | of which are non-zero points    :    38943
  | Numerical average free-atom electrostatic potential    :    -13.30103870 eV
  Renormalizing the initial density to the exact electron count on the 3D integration grid.
  | Initial density: Formal number of electrons (from input files) :     112.0000000000
  | Integrated number of electrons on 3D grid     :     112.0094625789
  | Charge integration error                      :       0.0094625789
  | Normalization factor for density and gradient :       0.9999155198
  Renormalizing the free-atom superposition density to the exact electron count on the 3D integration grid.
  | Formal number of electrons (from input files) :     112.0000000000
  | Integrated number of electrons on 3D grid     :     112.0094625789
  | Charge integration error                      :       0.0094625789
  | Normalization factor for density and gradient :       0.9999155198
  Obtaining max. number of non-zero basis functions in each batch (get_n_compute_maxes).
  | Maximal number of non-zero basis functions:      709 in task     0
  | Maximal number of non-zero basis functions:      707 in task     1
  | Maximal number of non-zero basis functions:      694 in task     2
  | Maximal number of non-zero basis functions:      709 in task     3
  | Maximal number of non-zero basis functions:      719 in task     4
  | Maximal number of non-zero basis functions:      698 in task     5
  | Maximal number of non-zero basis functions:      671 in task     6
  | Maximal number of non-zero basis functions:      753 in task     7
  Allocating        0.977 MB for KS_eigenvector_complex
  Integrating Hamiltonian matrix: batch-based integration.
  Time summed over all CPUs for integration: real work        1.357 s, elapsed        1.652 s
  Integrating overlap matrix.
  Time summed over all CPUs for integration: real work        1.053 s, elapsed        1.190 s
  Decreasing sparse matrix size:
  | Tolerance:  0.1000E-12
  Hamiltonian matrix
  | Array has   325329 nonzero elements out of   353363 elements
  | Sparsity factor is 0.079
  Overlap matrix
  | Array has   314243 nonzero elements out of   353363 elements
  | Sparsity factor is 0.111
  New size of hamiltonian matrix:      325331

  Updating Kohn-Sham eigenvalues and eigenvectors using ELSI and the (modified) LAPACK eigensolver.

  Obtaining occupation numbers and electronic chemical potential using ELSI.
  | Note that, for insulating systems, the printed 'chemical potential' value is not uniquely defined.
  | It can be anywhere in the energy gap, as long as it correctly separates occupied and unoccupied states.
  | In systems with a gap, the physically relevant chemical potential is the VBM or HOMO.

  | Chemical potential (Fermi level):    -5.76958286 eV
  Writing Kohn-Sham eigenvalues.
  K-point:       1 at    0.000000    0.000000    0.000000 (in units of recip. lattice)

  State    Occupation    Eigenvalue [Ha]    Eigenvalue [eV]
      1       2.00000         -65.518856        -1782.85879
      2       2.00000         -65.517054        -1782.80974
      3       2.00000         -65.516988        -1782.80795
      4       2.00000         -65.514350        -1782.73616
      5       2.00000         -65.514300        -1782.73480
      6       2.00000         -65.513409        -1782.71056
      7       2.00000         -65.511222        -1782.65106
      8       2.00000         -65.511135        -1782.64868
      9       2.00000          -5.120877         -139.34616
     10       2.00000          -5.118761         -139.28857
     11       2.00000          -5.118707         -139.28710
     12       2.00000          -5.115610         -139.20282
     13       2.00000          -5.115550         -139.20119
     14       2.00000          -5.114509         -139.17288
     15       2.00000          -5.111936         -139.10286
     16       2.00000          -5.111810         -139.09942
     17       2.00000          -3.536085          -96.22176
     18       2.00000          -3.535053          -96.19368
     19       2.00000          -3.534103          -96.16783
     20       2.00000          -3.533715          -96.15727
     21       2.00000          -3.533180          -96.14271
     22       2.00000          -3.532864          -96.13412
     23       2.00000          -3.532755          -96.13116
     24       2.00000          -3.532442          -96.12262
     25       2.00000          -3.531791          -96.10492
     26       2.00000          -3.529989          -96.05588
     27       2.00000          -3.529933          -96.05436
     28       2.00000          -3.529808          -96.05096
     29       2.00000          -3.529657          -96.04685
     30       2.00000          -3.529397          -96.03977
     31       2.00000          -3.529348          -96.03845
     32       2.00000          -3.529125          -96.03238
     33       2.00000          -3.528384          -96.01222
     34       2.00000          -3.528236          -96.00818
     35       2.00000          -3.526613          -95.96403
     36       2.00000          -3.526271          -95.95471
     37       2.00000          -3.526180          -95.95225
     38       2.00000          -3.525898          -95.94457
     39       2.00000          -3.525557          -95.93527
     40       2.00000          -3.525390          -95.93075
     41       2.00000          -0.674129          -18.34399
     42       2.00000          -0.539777          -14.68808
     43       2.00000          -0.527851          -14.36356
     44       2.00000          -0.525609          -14.30255
     45       2.00000          -0.520474          -14.16281
     46       2.00000          -0.511553          -13.92007
     47       2.00000          -0.501854          -13.65616
     48       2.00000          -0.345387           -9.39847
     49       2.00000          -0.341433           -9.29088
     50       2.00000          -0.337594           -9.18640
     51       2.00000          -0.334077           -9.09071
     52       2.00000          -0.330066           -8.98156
     53       2.00000          -0.329146           -8.95652
     54       2.00000          -0.242545           -6.59998
     55       2.00000          -0.233781           -6.36149
     56       2.00000          -0.225906           -6.14721
     57       0.00000          -0.208685           -5.67862
     58       0.00000          -0.206528           -5.61991
     59       0.00000          -0.201706           -5.48869
     60       0.00000          -0.192827           -5.24709
     61       0.00000          -0.189174           -5.14769
     62       0.00000          -0.188698           -5.13473
     63       0.00000          -0.135226           -3.67969
     64       0.00000          -0.128670           -3.50129
     65       0.00000          -0.125192           -3.40665
     66       0.00000          -0.112070           -3.04959
     67       0.00000           0.061423            1.67140
     68       0.00000           0.062572            1.70266
     69       0.00000           0.074483            2.02678
     70       0.00000           0.132457            3.60433
     71       0.00000           0.135079            3.67569
     72       0.00000           0.141801            3.85860
     73       0.00000           0.145026            3.94635
     74       0.00000           0.150105            4.08457
     75       0.00000           0.153687            4.18204
     76       0.00000           0.163992            4.46244
     77       0.00000           0.168117            4.57471
     78       0.00000           0.177955            4.84240
     79       0.00000           0.181668            4.94343
     80       0.00000           0.189021            5.14352

  What follows are estimated values for band gap, HOMO, LUMO, etc.
  | They are estimated on a discrete k-point grid and not necessarily exact.
  | For converged numbers, create a DOS and/or band structure plot on a denser k-grid.

  Highest occupied state (VBM) at     -6.14720923 eV (relative to internal zero)
  | Occupation number:      2.00000000
  | K-point:       1 at    0.000000    0.000000    0.000000 (in units of recip. lattice)

  Lowest unoccupied state (CBM) at    -5.67861881 eV (relative to internal zero)
  | Occupation number:      0.00000000
  | K-point:       1 at    0.000000    0.000000    0.000000 (in units of recip. lattice)

  ESTIMATED overall HOMO-LUMO gap:      0.46859042 eV between HOMO at k-point 1 and LUMO at k-point 1
  | This appears to be a direct band gap.
  The gap value is above 0.2 eV. Unless you are using a very sparse k-point grid,
  this system is most likely an insulator or a semiconductor.
  Calculating total energy contributions from superposition of free atom densities.

  Total energy components:
  | Sum of eigenvalues            :       -1312.91988447 Ha      -35726.36779411 eV
  | XC energy correction          :        -158.69036035 Ha       -4318.18441180 eV
  | XC potential correction       :         209.65549976 Ha        5705.01641638 eV
  | Free-atom electrostatic energy:       -1053.01394347 Ha      -28653.96729953 eV
  | Hartree energy correction     :          -0.00000000 Ha          -0.00000000 eV
  | Entropy correction            :          -0.00000000 Ha          -0.00000000 eV
  | ---------------------------
  | Total energy                  :       -2314.96868853 Ha      -62993.50308906 eV
  | Total energy, T -> 0          :       -2314.96868853 Ha      -62993.50308906 eV  <-- do not rely on this value for anything but (periodic) metals
  | Electronic free energy        :       -2314.96868853 Ha      -62993.50308906 eV

  Derived energy quantities:
  | Kinetic energy                :        2318.93062051 Ha       63101.31274347 eV
  | Electrostatic energy          :       -4475.20894869 Ha     -121776.63142073 eV
  | Energy correction for multipole
  | error in Hartree potential    :           0.00000000 Ha           0.00000000 eV
  | Sum of eigenvalues per atom                           :       -4465.79597426 eV
  | Total energy (T->0) per atom                          :       -7874.18788613 eV  <-- do not rely on this value for anything but (periodic) metals
  | Electronic free energy per atom                       :       -7874.18788613 eV
  Initialize hartree_potential_storage
  Max. number of atoms included in rho_multipole:            8

  End scf initialization - timings             :  max(cpu_time)    wall_clock(cpu1)
  | Time for scf. initialization                :        0.619 s           0.650 s
  | Boundary condition initialization           :        0.027 s           0.028 s
  | Integration                                 :        0.354 s           0.368 s
  | Solution of K.-S. eqns.                     :        0.115 s           0.118 s
  | Grid partitioning                           :        0.036 s           0.036 s
  | Preloading free-atom quantities on grid     :        0.091 s           0.092 s
  | Free-atom superposition energy              :        0.029 s           0.029 s
  | Total energy evaluation                     :        0.000 s           0.000 s

  Partial memory accounting:
  | Current value for overall tracked memory usage:
  |   Minimum:        7.227 MB (on task 0)
  |   Maximum:        7.471 MB (on task 1)
  |   Average:        7.349 MB
  | Peak value for overall tracked memory usage:
  |   Minimum:       12.916 MB (on task 6 after allocating wave)
  |   Maximum:       14.017 MB (on task 7 after allocating wave)
  |   Average:       13.519 MB
  | Largest tracked array allocation so far:
  |   Minimum:        3.435 MB (hamiltonian_shell on task 6)
  |   Maximum:        4.326 MB (hamiltonian_shell on task 7)
  |   Average:        3.823 MB
  Note:  These values currently only include a subset of arrays which are explicitly tracked.
  The "true" memory usage will be greater.
------------------------------------------------------------
  Time for density update prior                :  max(cpu_time)    wall_clock(cpu1)
  | self-consistency iterative process          :        0.201 s           0.208 s
------------------------------------------------------------
Convergence:    q app. |  density  | eigen (eV) | Etot (eV) | forces (eV/A) |       CPU time |     Clock time
  SCF    1 :  0.90E-13 |  0.23E+00 |   0.53E+01 |  0.11E+00 |             . |        0.526 s |        0.548 s
  SCF    2 :  0.93E-13 |  0.22E+00 |   0.82E+02 |  0.68E+00 |             . |        0.495 s |        0.501 s
  SCF    3 : -0.55E-13 |  0.35E-01 |  -0.26E+02 |  0.46E-01 |             . |        0.522 s |        0.528 s
  SCF    4 : -0.19E-14 |  0.21E-01 |   0.57E+01 | -0.30E-02 |             . |        0.514 s |        0.526 s
  SCF    5 : -0.16E-13 |  0.14E-01 |  -0.86E+01 |  0.14E-01 |             . |        0.559 s |        0.572 s
  SCF    6 : -0.18E-13 |  0.41E-02 |  -0.34E+00 |  0.46E-03 |             . |        0.537 s |        0.543 s
  SCF    7 :  0.59E-13 |  0.42E-02 |  -0.58E+00 |  0.14E-02 |             . |        0.531 s |        0.543 s
  SCF    8 :  0.33E-13 |  0.19E-02 |  -0.33E+00 |  0.31E-03 |             . |        0.503 s |        0.509 s
  SCF    9 :  0.59E-13 |  0.27E-03 |   0.17E+00 | -0.70E-04 |             . |        0.541 s |        0.549 s
  SCF   10 :  0.92E-13 |  0.19E-03 |   0.51E-02 |  0.11E-04 |             . |        0.542 s |        0.551 s
  SCF   11 :  0.15E-12 |  0.38E-04 |  -0.12E-01 |  0.53E-05 |             . |        0.513 s |        0.529 s
  SCF   12 : -0.32E-13 |  0.31E-04 |   0.17E-01 |  0.37E-06 |             . |        0.495 s |        0.505 s
  SCF   13 :  0.28E-13 |  0.11E-04 |   0.37E-02 |  0.28E-05 |             . |        0.547 s |        0.553 s
  SCF   14 :  0.36E-13 |  0.37E-05 |  -0.22E-03 |  0.53E-06 |             . |        0.521 s |        0.530 s
  SCF   15 : -0.34E-13 |  0.24E-05 |   0.11E-03 | -0.14E-06 |             . |        0.583 s |        0.588 s
  SCF   16 : -0.51E-13 |  0.23E-05 |   0.36E-03 | -0.32E-06 |             . |        0.521 s |        0.596 s
  SCF   17 : -0.17E-13 |  0.21E-05 |   0.17E-03 | -0.23E-08 |             . |        0.547 s |        0.588 s
  SCF   18 :  0.89E-14 |  0.19E-05 |  -0.88E-04 |  0.11E-06 |             . |        0.554 s |        0.571 s
  SCF   19 :  0.33E-13 |  0.18E-05 |  -0.38E-03 |  0.35E-06 |             . |        0.519 s |        0.531 s
  SCF   20 : -0.17E-13 |  0.16E-05 |   0.62E-04 |  0.25E-07 |             . |        0.527 s |        0.548 s
  SCF   21 : -0.50E-13 |  0.15E-05 |   0.58E-04 |  0.44E-06 |             . |        0.552 s |        0.563 s
  SCF   22 :  0.50E-13 |  0.27E-06 |  -0.14E-05 |  0.67E-09 |             . |        0.525 s |        0.538 s
  SCF   23 :  0.16E-13 |  0.26E-06 |  -0.27E-04 |  0.20E-08 |      0.16E+01 |        2.752 s |        2.684 s

  Total energy components:
  | Sum of eigenvalues            :       -1310.81412804 Ha      -35669.06724608 eV
  | XC energy correction          :        -158.85124036 Ha       -4322.56217964 eV
  | XC potential correction       :         209.86700853 Ha        5710.77186302 eV
  | Free-atom electrostatic energy:       -1053.01394347 Ha      -28653.96729953 eV
  | Hartree energy correction     :          -2.12517931 Ha         -57.82907136 eV
  | Entropy correction            :          -0.00000013 Ha          -0.00000364 eV
  | ---------------------------
  | Total energy                  :       -2314.93748264 Ha      -62992.65393358 eV
  | Total energy, T -> 0          :       -2314.93748277 Ha      -62992.65393722 eV  <-- do not rely on this value for anything but (periodic) metals
  | Electronic free energy        :       -2314.93748291 Ha      -62992.65394086 eV

  Derived energy quantities:
  | Kinetic energy                :        2318.60663703 Ha       63092.49670439 eV
  | Electrostatic energy          :       -4474.69287931 Ha     -121762.58845832 eV
  | Energy correction for multipole
  | error in Hartree potential    :           0.05766820 Ha           1.56923165 eV
  | Sum of eigenvalues per atom                           :       -4458.63340576 eV
  | Total energy (T->0) per atom                          :       -7874.08174215 eV  <-- do not rely on this value for anything but (periodic) metals
  | Electronic free energy per atom                       :       -7874.08174261 eV
  What follows are estimated values for band gap, HOMO, LUMO, etc.
  | They are estimated on a discrete k-point grid and not necessarily exact.
  | For converged numbers, create a DOS and/or band structure plot on a denser k-grid.

  Highest occupied state (VBM) at     -5.73238862 eV (relative to internal zero)
  | Occupation number:      1.99804691
  | K-point:       1 at    0.000000    0.000000    0.000000 (in units of recip. lattice)

  Lowest unoccupied state (CBM) at    -5.51337561 eV (relative to internal zero)
  | Occupation number:      0.00195260
  | K-point:       1 at    0.000000    0.000000    0.000000 (in units of recip. lattice)

  ESTIMATED overall HOMO-LUMO gap:      0.21901301 eV between HOMO at k-point 1 and LUMO at k-point 1
  | This appears to be a direct band gap.
  The gap value is above 0.2 eV. Unless you are using a very sparse k-point grid,
  this system is most likely an insulator or a semiconductor.

  | Chemical Potential                          :    -5.62288341 eV
  | Note that, for insulating systems, the printed 'chemical potential' value is not uniquely defined.
  | It can be anywhere in the energy gap, as long as it correctly separates occupied and unoccupied states.
  | In systems with a gap, the physically relevant chemical potential is the VBM or HOMO.

  Self-consistency cycle converged.

  Removing unitary transformations (pure translations, rotations) from forces on atoms.
  Atomic forces before filtering:
  | Net force on center of mass :   0.817774E-02 -0.105994E-02  0.678685E-02 eV/A
  Atomic forces after filtering:
  | Net force on center of mass :   0.178406E-15  0.892031E-16  0.312211E-15 eV/A

  Energy and forces in a compact form:
  | Total energy uncorrected      :         -0.629926539335758E+05 eV
  | Total energy corrected        :         -0.629926539372161E+05 eV  <-- do not rely on this value for anything but (periodic) metals
  | Electronic free energy        :         -0.629926539408563E+05 eV
  Total atomic forces (unitary forces cleaned) [eV/Ang]:
  |    1          0.581143460227195E-01          0.441815119839137E+00          0.822013214976650E+00
  |    2         -0.562496226108364E+00         -0.141030733969989E+00          0.460005005720299E+00
  |    3          0.130505136762836E+00         -0.197029556743693E-01         -0.975735737650358E+00
  |    4          0.376819045733100E+00          0.148000064404960E+01          0.204880173216576E+01
  |    5         -0.709689235301239E+00         -0.747919914054527E+00          0.547136548353785E+00
  |    6         -0.664587075986323E+00         -0.107856059509874E+00         -0.950840312538909E+00
  |    7          0.208280421139493E+01         -0.364733032232391E+00         -0.158278072194972E+01
  |    8         -0.711470202517664E+00         -0.540573068447586E+00         -0.368599729077504E+00

  Removing unitary transformations (pure translations, rotations) from forces on atoms.
  Atomic forces before filtering:
  | Net force on center of mass :   0.178406E-15  0.892031E-16  0.312211E-15 eV/A
  Atomic forces after filtering:
  | Net force on center of mass :   0.178406E-15  0.892031E-16 -0.892031E-16 eV/A
  @ DRIVER - WARNING: the stress tensor will not be computed
 ------------------------------------------------------------------------
 Atomic structure that was used in the preceding time step of the wrapper
                         x [A]             y [A]             z [A]
  lattice_vector         5.40883258        0.00000000        0.00000000
  lattice_vector         0.00000000        5.40883257        0.00000000
  lattice_vector         0.00000000        0.00000000        5.40883257

            atom        -0.02500884        0.00864467       -0.05920417  Si
            atom         0.05969790        2.64436476        2.69478982  Si
            atom         2.64805721       -0.01852889        2.75683379  Si
            atom         2.71699289        2.72027493       -0.08217265  Si
            atom         1.43175091        1.38786022        1.25671612  Si
            atom         1.34582551        4.04414503        4.11060734  Si
            atom         3.89719029        1.33182998        4.12251546  Si
            atom         4.15199187        4.10790702        1.42641200  Si
 ------------------------------------------------------------------------
  @ DRIVER MODE: Message from server: STATUS      
  @ DRIVER MODE: Message from server: GETFORCE    
  @ DRIVER MODE: Returning v,forces,stress 

------------------------------------------------------------------------------
  Final output of selected total energy values:

  The following output summarizes some interesting total energy values
  at the end of a run (AFTER all relaxation, molecular dynamics, etc.).

  | Total energy of the DFT / Hartree-Fock s.c.f. calculation      :         -62992.653933576 eV
  | Final zero-broadening corrected energy (caution - metals only) :         -62992.653937216 eV
  | For reference only, the value of 1 Hartree used in FHI-aims is :             27.211384500 eV
  | For reference only, the overall average (free atom contribution
  | + realspace contribution) of the electrostatic potential after
  | s.c.f. convergence is                                          :            -13.003398270 eV

  Before relying on these values, please be sure to understand exactly which
  total energy value is referred to by a given number. Different objects may
  all carry the same name 'total energy'. Definitions:

  Total energy of the DFT / Hartree-Fock s.c.f. calculation:
  | Note that this energy does not include ANY quantities calculated after the
  | s.c.f. cycle, in particular not ANY RPA, MP2, etc. many-body perturbation terms.

  Final zero-broadening corrected energy:
  | For metallic systems only, a broadening of the occupation numbers at the Fermi
  | level can be extrapolated back to zero broadening by an electron-gas inspired
  | formula. For all systems that are not real metals, this value can be
  | meaningless and should be avoided.

------------------------------------------------------------------------------
  Methods described in the following list of references were used in this FHI-aims run.
  If you publish the results, please make sure to cite these reference if they apply.
  FHI-aims is an academic code, and for our developers (often, Ph.D. students
  and postdocs), scientific credit in the community is essential.
  Thank you for helping us!

  For any use of FHI-aims, please cite:

    Volker Blum, Ralf Gehrke, Felix Hanke, Paula Havu, Ville Havu,
    Xinguo Ren, Karsten Reuter, and Matthias Scheffler
    'Ab initio molecular simulations with numeric atom-centered orbitals'
    Computer Physics Communications 180, 2175-2196 (2009)
    http://doi.org/10.1016/j.cpc.2009.06.022


  The provided symmetry information was generated with SPGlib:

    Atsushi Togo, Yusuke Seto, Dimitar Pashov
    SPGlib 1.7.3 obtained from http://spglib.sourceforge.net
    Licence: New BSD license
    Copyright (C) 2008 Atsushi Togo


  The ELSI infrastructure was used in your run to solve the Kohn-Sham electronic structure.
  Please check out http://elsi-interchange.org to learn more.
  If scalability is important for your project, please acknowledge ELSI by citing:

    V. W-z. Yu, F. Corsetti, A. Garcia, W. P. Huhn, M. Jacquelin, W. Jia,
    B. Lange, L. Lin, J. Lu, W. Mi, A. Seifitokaldani, A. Vazquez-Mayagoitia,
    C. Yang, H. Yang, and V. Blum
    'ELSI: A unified software interface for Kohn-Sham electronic structure solvers'
    Computer Physics Communications 222, 267-285 (2018).
    http://doi.org/10.1016/j.cpc.2017.09.007


  For the real-space grid partitioning and parallelization used in this calculation, please cite:

    Ville Havu, Volker Blum, Paula Havu, and Matthias Scheffler,
    'Efficient O(N) integration for all-electron electronic structure calculation'
    'using numerically tabulated basis functions'
    Journal of Computational Physics 228, 8367-8379 (2009).
    http://doi.org/10.1016/j.jcp.2009.08.008

  Of course, there are many other important community references, e.g., those cited in the
  above references. Our list is limited to references that describe implementations in the
  FHI-aims code. The reason is purely practical (length of this list) - please credit others as well.

------------------------------------------------------------
          Leaving FHI-aims.
          Date     :  20250610, Time     :  142959.939

          Computational steps:
          | Number of self-consistency cycles          :           23
          | Number of SCF (re)initializations          :            1

          Detailed time accounting                     :  max(cpu_time)    wall_clock(cpu1)
          | Total time                                  :       15.310 s          15.870 s
          | Preparation time                            :        0.087 s           0.090 s
          | Boundary condition initalization            :        0.027 s           0.028 s
          | Grid partitioning                           :        0.036 s           0.036 s
          | Preloading free-atom quantities on grid     :        0.091 s           0.092 s
          | Free-atom superposition energy              :        0.029 s           0.029 s
          | Total time for integrations                 :        4.646 s           4.766 s
          | Total time for solution of K.-S. equations  :        1.793 s           1.808 s
          | Total time for density & force components   :        6.156 s           6.166 s
          | Total time for mixing                       :        0.010 s           0.012 s
          | Total time for Hartree multipole update     :        0.026 s           0.026 s
          | Total time for Hartree multipole sum        :        2.060 s           2.073 s
          | Total time for total energy evaluation      :        0.002 s           0.001 s
          | Total time NSC force correction             :        0.522 s           0.528 s
          | Total time for scaled ZORA corrections      :        0.000 s           0.000 s

          Partial memory accounting:
          | Residual value for overall tracked memory usage across tasks:     0.000000 MB (should be 0.000000 MB)
          | Peak values for overall tracked memory usage:
          |   Minimum:       19.504 MB (on task 6 after allocating d_wave)
          |   Maximum:       21.373 MB (on task 7 after allocating d_wave)
          |   Average:       20.450 MB
          | Largest tracked array allocation:
          |   Minimum:        3.435 MB (hamiltonian_shell on task 6)
          |   Maximum:        4.326 MB (hamiltonian_shell on task 7)
          |   Average:        3.823 MB
          Note:  These values currently only include a subset of arrays which are explicitly tracked.
          The "true" memory usage will be greater.

          Have a nice day.
------------------------------------------------------------
