------------------------------------------------------------
          Invoking FHI-aims ...

          When using FHI-aims, please cite the following reference:

            Volker Blum, Ralf Gehrke, Felix Hanke, Paula Havu,
            Ville Havu, Xinguo Ren, Karsten Reuter, and Matthias Scheffler,
            'Ab Initio Molecular Simulations with Numeric Atom-Centered Orbitals',
            Computer Physics Communications 180, 2175-2196 (2009)

          In addition, many other developments in FHI-aims are likely important for
          your particular application. If so, please cite them. A partial list of references
          is written at the end of this file. Thank you for giving credit to the authors
          of these developments.

          For general information about FHI-aims please find us at

            https://fhi-aims.org

          Online tutorials can be found at

            https://fhi-aims-club.gitlab.io/tutorials/tutorials-overview/

          For any questions about FHI-aims, please visit our slack channel at

            https://fhi-aims.slack.com

          and our main development and support site at

            https://aims-git.rz-berlin.mpg.de .

          The latter site, in particular, has a wiki to collect information, as well
          as an issue tracker to log discussions, suggest improvements, and report issues
          or bugs. https://aims-git.rz-berlin.mpg.de is also the main development site
          of the project and all new and updated code versions can be obtained there.
          Please send an email to aims-coordinators@fhi-berlin.mpg.de and we will add
          you to these sites. They are for you and everyone is welcome there.

------------------------------------------------------------



  Date     :  20250610, Time     :  175719.650
  Time zero on CPU 1             :   0.290850000000000E-01  s.
  Internal wall clock time zero  :           518810239.650  s.

  FHI-aims created a unique identifier for this run for later identification
  aims_uuid : 64EC50B4-E377-40EF-AF4F-4D26E33D305B

  Build configuration of the current instance of FHI-aims
  -------------------------------------------------------
  FHI-aims version      : 250320.1
  Commit number         : GITDIR-NOTFOUND
  CMake host system     : Linux-6.11.0-26-generic
  CMake version         : 3.28.3
  Fortran compiler      : /usr/bin/mpif90 (GNU) version 13.3.0
  Fortran compiler flags: -O3 -ffree-line-length-none -fallow-argument-mismatch
  C compiler            : /usr/bin/mpicc (GNU) version 13.3.0
  C compiler flags      : -O2
  C++ compiler          : /usr/bin/mpic++ (GNU) version 13.3.0
  C++ compiler flags    : -O2 -fPIE
  HIP compiler          :
  HIP compiler flags    :
  HIP GPU arch          :
  Using MPI
  Using ScaLAPACK
  Using LibXC
  Using i-PI
  Using RLSY
  Linking against: /usr/lib/x86_64-linux-gnu/liblapack.so
                   /usr/lib/x86_64-linux-gnu/libblas.so
                   /usr/lib/x86_64-linux-gnu/libscalapack-openmpi.so

  Using        6 parallel tasks.
  Task        0 on host 2f95f663cbc8 reporting.
  Task        1 on host 2f95f663cbc8 reporting.
  Task        2 on host 2f95f663cbc8 reporting.
  Task        3 on host 2f95f663cbc8 reporting.
  Task        4 on host 2f95f663cbc8 reporting.
  Task        5 on host 2f95f663cbc8 reporting.

  Obtaining array dimensions for all initial allocations:
  
  -----------------------------------------------------------------------
  Parsing control.in (first pass over file, find array dimensions only).
  The contents of control.in will be repeated verbatim below
  unless switched off by setting 'verbatim_writeout .false.' .
  in the first line of control.in .
  -----------------------------------------------------------------------
  
  #===============================================================================
  # FHI-aims file: ./control.in
  # Created using the Atomic Simulation Environment (ASE)
  # Tue Jun 10 17:57:19 2025
  #===============================================================================
  xc                                 pw-lda
  compute_forces                     .true.
  k_grid                             4 4 4
  sc_accuracy_rho                    1e-06
  relativistic                       atomic_zora scalar
  output_level                       MD_light
  use_pimd_wrapper                   localhost 10003
  #===============================================================================
  
  ################################################################################
  #
  #  FHI-aims code project
  #  VB, Fritz-Haber Institut, 2009
  #
  #  Suggested "light" defaults for Si atom (to be pasted into control.in file)
  #  Be sure to double-check any results obtained with these settings for post-processing,
  #  e.g., with the "tight" defaults and larger basis sets.
  #
  #  2020/09/08 Added f function to "light" after reinspection of Delta test outcomes.
  #             This was done for all of Al-Cl and is a tricky decision since it makes
  #             "light" calculations measurably more expensive for these elements.
  #             Nevertheless, outcomes for P, S, Cl (and to some extent, Si) appear
  #             to justify this choice.
  #
  ################################################################################
    species        Si
  #     global species definitions
      nucleus             14
      mass                28.0855
  #
      l_hartree           4
  #
      cut_pot             3.5          1.5  1.0
      basis_dep_cutoff    1e-4
  #
      radial_base         42 5.0
      radial_multiplier   1
      angular_grids       specified
        division   0.5866   50
        division   0.9616  110
        division   1.2249  194
        division   1.3795  302
  #      division   1.4810  434
  #      division   1.5529  590
  #      division   1.6284  770
  #      division   1.7077  974
  #      division   2.4068 1202
  #      outer_grid   974
        outer_grid 302
  ################################################################################
  #
  #  Definition of "minimal" basis
  #
  ################################################################################
  #     valence basis states
      valence      3  s   2.
      valence      3  p   2.
  #     ion occupancy
      ion_occ      3  s   1.
      ion_occ      3  p   1.
  ################################################################################
  #
  #  Suggested additional basis functions. For production calculations,
  #  uncomment them one after another (the most important basis functions are
  #  listed first).
  #
  #  Constructed for dimers: 1.75 A, 2.0 A, 2.25 A, 2.75 A, 3.75 A
  #
  ################################################################################
  #  "First tier" - improvements: -571.96 meV to -37.03 meV
       hydro 3 d 4.2
       hydro 2 p 1.4
       hydro 4 f 6.2
       ionic 3 s auto
  #  "Second tier" - improvements: -16.76 meV to -3.03 meV
  #     hydro 3 d 9
  #     hydro 5 g 9.4
  #     hydro 4 p 4
  #     hydro 1 s 0.65
  #  "Third tier" - improvements: -3.89 meV to -0.60 meV
  #     ionic 3 d auto
  #     hydro 3 s 2.6
  #     hydro 4 f 8.4
  #     hydro 3 d 3.4
  #     hydro 3 p 7.8
  #  "Fourth tier" - improvements: -0.33 meV to -0.11 meV
  #     hydro 2 p 1.6
  #     hydro 5 g 10.8
  #     hydro 5 f 11.2
  #     hydro 3 d 1
  #     hydro 4 s 4.5
  #  Further basis functions that fell out of the optimization - noise
  #  level... < -0.08 meV
  #     hydro 4 d 6.6
  #     hydro 5 g 16.4
  #     hydro 4 d 9
  
  -----------------------------------------------------------------------
  Completed first pass over input file control.in .
  -----------------------------------------------------------------------
  
  
  -----------------------------------------------------------------------
  Parsing geometry.in (first pass over file, find array dimensions only).
  The contents of geometry.in will be repeated verbatim below
  unless switched off by setting 'verbatim_writeout .false.' .
  in the first line of geometry.in .
  -----------------------------------------------------------------------
  
  #=======================================================
  # FHI-aims file: ./geometry.in
  # Created using the Atomic Simulation Environment (ASE)
  # Tue Jun 10 17:57:19 2025
  #=======================================================
  lattice_vector 5.6431102268527997 0.0000000000000001 0.0000000000000001
  lattice_vector 0.0000000000000001 5.6431102268527997 -0.0000000000000001
  lattice_vector -0.0000000000000001 -0.0000000000000001 5.6431102268527997
  atom_frac 0.0017720724207043 0.0000000000000000 0.0000000000000000 Si
  atom_frac 0.0000000000000000 0.5000000000000000 0.5000000000000000 Si
  atom_frac 0.5000000000000000 0.0000000000000000 0.4999999999999999 Si
  atom_frac 0.5000000000000000 0.4999999999999999 -0.0000000000000000 Si
  atom_frac 0.2500000000000000 0.2499999999999999 0.2499999999999999 Si
  atom_frac 0.2500000000000000 0.7500000000000000 0.7499999999999999 Si
  atom_frac 0.7500000000000000 0.2500000000000000 0.7499999999999999 Si
  atom_frac 0.7500000000000000 0.7500000000000000 0.2500000000000000 Si
  
  -----------------------------------------------------------------------
  Completed first pass over input file geometry.in .
  -----------------------------------------------------------------------
  

  Basic array size parameters:
  | Number of species                 :        1
  | Number of atoms                   :        8
  | Number of lattice vectors         :        3
  | Max. basis fn. angular momentum   :        3
  | Max. atomic/ionic basis occupied n:        3
  | Max. number of basis fn. types    :        3
  | Max. radial fns per species/type  :        5
  | Max. logarithmic grid size        :     1346
  | Max. radial integration grid size :       42
  | Max. angular integration grid size:      302
  | Max. angular grid division number :        8
  | Radial grid for Hartree potential :     1346
  | Number of spin channels           :        1

  Definition of standardized fundamental physical constants in this FHI-aims run:
  | Using the set of values used in FHI-aims up to 2024, which combines values from
  | different CODATA sets - see constants.f90.
  | Use the 'codata' keyword in control.in to change this selection.

  Memory overcommitment is allowed on your operating system.

------------------------------------------------------------
          Reading file control.in.
------------------------------------------------------------
  XC: Using Perdew-Wang parametrisation of Ceperley-Alder LDA.
  Forces will be computed.
  Found k-point grid:         4         4         4
  Convergence accuracy of self-consistent charge density:  0.1000E-05
  Scalar relativistic treatment of kinetic energy: on-site free-atom approximation to ZORA.
  Requested output level: MD_light
  Using external wrapper (i-PI) for performing (path integral) molecular dynamics
  **Attention: initial geometry.in file will be ignored!

  Reading configuration options for species Si                  .
  | Found nuclear charge :  14.0000
  | Found atomic mass :    28.085500000000000      amu
  | Found l_max for Hartree potential  :   4
  | Found cutoff potl. onset [A], width [A], scale factor :    3.50000    1.50000    1.00000
  | Threshold for basis-dependent cutoff potential is   0.100000E-03
  | Found data for basic radial integration grid :    42 points, outermost radius =    5.000 A
  | Found multiplier for basic radial grid :   1
  | Found angular grid specification: user-specified.
  | Specified grid contains     5 separate shells.
  | Check grid settings after all constraints further below.
  | Found free-atom valence shell :  3 s   2.000
  | Found free-atom valence shell :  3 p   2.000
  | Found free-ion valence shell :  3 s   1.000
  | Found free-ion valence shell :  3 p   1.000
  | Found hydrogenic basis function :  3 d   4.200
  | Found hydrogenic basis function :  2 p   1.400
  | Found hydrogenic basis function :  4 f   6.200
  | Found ionic basis function :  3 s , default cutoff radius.
  Species Si                  : Missing cutoff potential type.
  Defaulting to exp(1/x)/(1-x)^2 type cutoff potential.
  Species Si: No 'logarithmic' tag. Using default grid for free atom:
  | Default logarithmic grid data [bohr] : 0.1000E-03 0.1000E+03 0.1012E+01
  | Will include ionic basis functions of  2.0-fold positive Si                   ion.
  Species Si: On-site basis accuracy parameter (for Gram-Schmidt orthonormalisation) not specified.
  Using default value basis_acc =  0.1000000E-03.
  Species Si                  : Using default innermost maximum threshold i_radial=  2 for radial functions.
  Species Si                  : Default cutoff onset for free atom density etc. : 0.35000000E+01 AA.
  Species Si                  : Basic radial grid will be enhanced according to radial_multiplier =   1, to contain    42 grid points.

  Finished reading input file 'control.in'.

------------------------------------------------------------


------------------------------------------------------------
          Reading geometry description geometry.in.
------------------------------------------------------------
  | The smallest distance between any two atoms is         2.43777858 AA.
  | The first atom of this pair is atom number                      1 .
  | The second atom of this pair is atom number                     5 .
  | Wigner-Seitz cell of the first atom image           0     0     0 .
  | (The Wigner-Seitz cell of the second atom is 0 0 0  by definition.)

  Symmetry information by spglib:
  | Precision set to  0.1E-04
  | Number of Operations  : 4
  | Space group           : 35
  | International         : Cmm2
  | Schoenflies           : C2v^11
  Input structure read successfully.
  The structure contains        8 atoms,  and a total of        112.000 electrons.

  Input geometry:
  | Unit cell:
  |        5.64311023        0.00000000        0.00000000
  |        0.00000000        5.64311023       -0.00000000
  |       -0.00000000       -0.00000000        5.64311023
  | Atomic structure:
  |       Atom                x [A]            y [A]            z [A]
  |    1: Species Si            0.01000000        0.00000000        0.00000000
  |    2: Species Si            0.00000000        2.82155511        2.82155511
  |    3: Species Si            2.82155511        0.00000000        2.82155511
  |    4: Species Si            2.82155511        2.82155511        0.00000000
  |    5: Species Si            1.41077756        1.41077756        1.41077756
  |    6: Species Si            1.41077756        4.23233267        4.23233267
  |    7: Species Si            4.23233267        1.41077756        4.23233267
  |    8: Species Si            4.23233267        4.23233267        1.41077756

  Lattice parameters for 3D lattice (in Angstroms) :     5.643110    5.643110    5.643110
  Angle(s) between unit vectors (in degrees)       :    90.000000   90.000000   90.000000


  Quantities derived from the lattice vectors (in Angstrom^-1):
  | Reciprocal lattice vector 1:  1.113426  0.000000  0.000000
  | Reciprocal lattice vector 2: -0.000000  1.113426 -0.000000
  | Reciprocal lattice vector 3: -0.000000  0.000000  1.113426
  | Unit cell volume                               :   0.179703E+03  Angstrom^3

  Slab Identifier: This seems to be a bulk system.

  Finished reading input file 'geometry.in'.



  Consistency checks for stacksize environment parameter are next.

  | Maximum stacksize for task 0: unlimited
  | Maximum stacksize for task 1: unlimited
  | Maximum stacksize for task 2: unlimited
  | Maximum stacksize for task 3: unlimited
  | Maximum stacksize for task 4: unlimited
  | Maximum stacksize for task 5: unlimited
  | Current stacksize for task 0: unlimited
  | Current stacksize for task 1: unlimited
  | Current stacksize for task 2: unlimited
  | Current stacksize for task 3: unlimited
  | Current stacksize for task 4: unlimited
  | Current stacksize for task 5: unlimited

  Consistency checks for the contents of control.in are next.

  MPI_IN_PLACE appears to work with this MPI implementation.
  | Keeping use_mpi_in_place .true. (see manual).
  Target number of points in a grid batch is not set. Defaulting to  100
  Method for grid partitioning is not set. Defaulting to parallel hash+maxmin partitioning.
  Batch size limit is not set. Defaulting to    200
  By default, will store active basis functions for each batch.
  If in need of memory, prune_basis_once .false. can be used to disable this option.
  communication_type for Hartree potential was not specified.
  Defaulting to calc_hartree .
  Defaulting to Pulay charge density mixer.
  Pulay mixer: Number of relevant iterations not set.
  Defaulting to    8 iterations.
  Pulay mixer: Number of initial linear mixing iterations not set.
  Defaulting to    0 iterations.
  Work space size for distributed Hartree potential not set.
  Defaulting to   0.200000E+03 MB.
  Mixing parameter for charge density mixing has not been set.
  Using default: charge_mix_param =     0.0500.
  The mixing parameter will be adjusted in iteration number     2 of each s.c.f. cycle (i.e., each geometry step).
  Algorithm-dependent basis array size parameters:
  | n_max_pulay                         :        8
  Maximum number of self-consistency iterations not provided.
  Presetting  1000 iterations.
  Presetting      1001 iterations before the initial mixing cycle
  is restarted anyway using the sc_init_iter criterion / keyword.
  Presetting a factor      1.000 between actual scf density residual
  and density convergence criterion sc_accuracy_rho below which sc_init_iter
  takes no effect.
  Geometry relaxation not requested: no relaxation will be performed.
  Forces evaluation will include force correction term due to incomplete self-consistency (default).
  Force calculation: scf convergence accuracy of forces not set.
  Defaulting to 'sc_accuracy_forces not_checked'.
  Handling of forces: Unphysical translation and rotation will be removed from forces.
  No accuracy limit for integral partition fn. given. Defaulting to  0.1000E-14.
  No threshold value for u(r) in integrations given. Defaulting to  0.1000E-05.
  No occupation type (smearing scheme) given. Defaulting to Gaussian broadening, width =  0.1000E-01 eV.
  The width will be adjusted in iteration number     2 of each s.c.f. cycle (i.e., each geometry step).
  No accuracy for occupation numbers given. Defaulting to  0.1000E-12.
  No threshold value for occupation numbers given. Defaulting to  0.0000E+00.
  No accuracy for fermi level given. Defaulting to  0.1000E-19.
  Maximum # of iterations to find E_F not set. Defaulting to  200.
  Preferred method for the eigenvalue solver ('KS_method') not specified in 'control.in'.
  Defaulting to serial version, LAPACK (via ELSI), since more k-points than CPUs available.
  Will not use alltoall communication since running on < 1024 CPUs.
  Threshold for basis singularities not set.
  Default threshold for basis singularities:  0.1000E-04
  partition_type (choice of integration weights) for integrals was not specified.
  | Using a version of the partition function of Stratmann and coworkers ('stratmann_sparse').
  | At each grid point, the set of atoms used to build the partition table is smoothly restricted to
  | only those atoms whose free-atom density would be non-zero at that grid point.
  Partitioning for Hartree potential was not defined. Using partition_type for integrals.
  | Adjusted default value of keyword multip_moments_threshold to:       0.10000000E-11
  | This value may affect high angular momentum components of the Hartree potential in periodic systems.
  Spin handling was not defined in control.in. Defaulting to unpolarized case.
  No q(lm)/r^(l+1) cutoff set for long-range Hartree potential.
  | Using default value of  0.100000E-09 .
  | Verify using the multipole_threshold keyword.
  Defaulting to new monopole extrapolation.
  Density update method: automatic selection selected.
  Using density matrix based charge density update.
  Using density matrix based charge density update.
  Using packed matrix style: index .
  Threshold of packed matrixes:  0.000000E+00
  Defaulting to use time-reversal symmetry for k-point grid.
  Charge integration errors on the 3D integration grid will be compensated
  by explicit normalization and distribution of residual charges.
  Use the "compensate_multipole_errors" flag to change this behaviour.
  Set 'collect_eigenvectors' to be '.true.' for all serial calculations. This is mandatory.
  Set 'collect_eigenvectors' to be '.true.' for KS_method lapack_fast and serial.
  Found potential conflicts with setting 'use_local_index' for this calculation. Will not set it.

  Consistency checks for the contents of geometry.in are next.


  Range separation radius for Ewald summation (hartree_convergence_parameter):      4.05577198 bohr.
  Number of empty states per atom not set in control.in - providing a guess from actual geometry.
  | Total number of empty states used during s.c.f. cycle:       24
  If you use a very high smearing, use empty_states (per atom!) in control.in to increase this value.

  Structure-dependent array size parameters: 
  | Maximum number of distinct radial functions  :        9
  | Maximum number of basis functions            :      200
  | Number of Kohn-Sham states (occupied + empty):       80
------------------------------------------------------------

************************** W A R N I N G *******************************
* You are using the PIMD wrapper. Specifications and positions         *
* in geometry.in will be IGNORED - all is received from the wrapper.   *
* Please make sure species are declared in the same order in           *
* geometry.in and wrapper input.                                       *
************************************************************************


  Checking k-grid inconsistencies now:
  | k-point density for reciprocal lattice vector 1 is    3.59 nkpts / Angstrom^-1
  | k-point density for reciprocal lattice vector 2 is    3.59 nkpts / Angstrom^-1
  | k-point density for reciprocal lattice vector 3 is    3.59 nkpts / Angstrom^-1

  | Ratio of k-point densities for reciprocal lattice vectors 1 vs 2 is    1.00
  | Ratio of k-point densities for reciprocal lattice vectors 1 vs 3 is    1.00
  | Ratio of k-point densities for reciprocal lattice vectors 2 vs 3 is    1.00

  * The specified k_grid leads to a nearly homogenous k-grid density in non-vacuum directions,
  * and seems sensible.

  | Checks passed.
  After read_input_data [GB]:      5.07

  Performing system and environment tests:
  *** Environment variable OMP_NUM_THREADS is not set
  *** For performance reasons you might want to set it to 1
  | Checking for ScaLAPACK...
  | Testing pdtran()...
  | All pdtran() tests passed.
  After prepare_system [GB]:      5.05

------------------------------------------------------------
          Preparing all fixed parts of the calculation.
------------------------------------------------------------
  Determining machine precision:
     2.2250738585072014E-308
  Setting up grids for atomic and cluster calculations.

  Creating wave function, potential, and density for free atoms.
  Runtime choices for atomic solver:
  | atomic solver xc        : PW-LDA
  | compute density gradient: 0
  | compute kinetic density : F

  Species: Si

  List of occupied orbitals and eigenvalues:
    n    l              occ      energy [Ha]    energy [eV]
    1    0           2.0000       -65.491668     -1782.1190
    2    0           2.0000        -5.087967      -138.4506
    3    0           2.0000        -0.391471       -10.6525
    2    1           6.0000        -3.502246       -95.3010
    3    1           2.0000        -0.143943        -3.9169


  Adding cutoff potential to free-atom effective potential.
  Creating fixed part of basis set: Ionic, confined, hydrogenic.

  Si                   ion:

  List of free ionic orbitals and eigenvalues:
    n    l      energy [Ha]    energy [eV]
    1    0       -66.364436     -1805.8682
    2    0        -5.935799      -161.5213
    3    0        -1.078166       -29.3384
    2    1        -4.351123      -118.4001
    3    1        -0.781733       -21.2720


  List of ionic basis orbitals and eigenvalues:
    n    l      energy [Ha]    energy [eV]    outer radius [A]
    3    0        -1.078146       -29.3378       4.214062


  Si                   hydrogenic:

  List of hydrogenic basis orbitals: 
    n    l      effective z      eigenvalue [eV]  inner max. [A]     outer max. [A]     outer radius [A]   
    3    2         4.200000       -26.6624           1.139231           1.139231           4.534782
    2    1         1.400000        -6.4613           1.472672           1.472672           4.590560
    4    3         6.200000       -32.6778           1.368518           1.368518           4.534782

  Creating atomic-like basis functions for current effective potential.

  Species Si                  :

  List of atomic basis orbitals and eigenvalues:
    n    l      energy [Ha]    energy [eV]    outer radius [A]
    1    0       -65.491668     -1782.1190       0.789468
    2    0        -5.087967      -138.4506       2.815114
    3    0        -0.391471       -10.6525       4.534782
    2    1        -3.502246       -95.3010       3.259919
    3    1        -0.143943        -3.9169       4.590560

  Assembling full basis from fixed parts.
  | Species Si :   atomic orbital   1 s accepted.
  | Species Si :   atomic orbital   2 s accepted.
  | Species Si :    ionic orbital   3 s accepted.
  | Species Si :   atomic orbital   3 s accepted.
  | Species Si :   atomic orbital   2 p accepted.
  | Species Si :   atomic orbital   3 p accepted.
  | Species Si :    hydro orbital   2 p accepted.
  | Species Si :    hydro orbital   3 d accepted.
  | Species Si :    hydro orbital   4 f accepted.

  Basis size parameters after reduction:
  | Total number of radial functions:        9
  | Total number of basis functions :      200

  Per-task memory consumption for arrays in subroutine allocate_ext:
  |           3.106072MB.
  Testing on-site integration grid accuracy.
  |  Species  Function  <phi|h_atom|phi> (log., in eV)  <phi|h_atom|phi> (rad., in eV)
           1        1              -1782.1189727076              -1782.1182429251
           1        2               -138.4506350693               -138.4506310079
           1        3                -10.3030408815                -10.3029120678
           1        4                  5.0238999146                  4.9457540310 ***
           1        5                -95.3009689499                -95.3009689315
           1        6                 -3.9266496564                 -3.9420918374
           1        7                  6.3453628447                  6.1632372158 ***
           1        8                  6.2883050744                  6.2861881409
           1        9                 19.3222464920                 19.3177041052
 * Note: Onsite integrals marked "***" above are less accurate than
 * onsite_accuracy_threshold =    0.03000 eV. Usually, this is harmless.
 * When in doubt, tighten the "radial" and/or "radial_multiplier" flags to check.

  Preparing densities etc. for the partition functions (integrals / Hartree potential).

  Preparations completed.
  max(cpu_time)          :      0.080 s.
  Wall clock time (cpu1) :      0.080 s.
------------------------------------------------------------
  After prepare_scf [GB]:      4.79

  Initializing index lists of integration centers etc. from given atomic structure:
  Mapping all atomic coordinates to central unit cell.

  Initializing the k-points
  Using symmetry for reducing the k-points
  | k-points reduced from:       64 to       36
  | Number of k-points                             :        36
  The eigenvectors in the calculations are COMPLEX.
  | K-points in task   0:         6
  | K-points in task   1:         6
  | K-points in task   2:         6
  | K-points in task   3:         6
  | K-points in task   4:         6
  | K-points in task   5:         6
  | Number of basis functions in the Hamiltonian integrals :      3037
  | Number of basis functions in a single unit cell        :       200
  | Number of centers in hartree potential         :       990
  | Number of centers in hartree multipole         :       432
  | Number of centers in electron density summation:       312
  | Number of centers in basis integrals           :       312
  | Number of centers in integrals                 :       143
  | Number of centers in hamiltonian               :       312
  | Consuming         42 KiB for k_phase.
  | Number of super-cells (origin) [n_cells]                     :         729
  | Number of super-cells (after PM_index) [n_cells]             :          76
  | Number of super-cells in hamiltonian [n_cells_in_hamiltonian]:          76
  | Size of matrix packed + index [n_hamiltonian_matrix_size] :      325145
  After initialize_bc_dependent_lists [GB]:      4.79
* Skipping the SCF initialization for now - done inside wrapper      *
  @ DRIVER MODE: Connecting to host:port localhost       10003
  @ DRIVER MODE: Message from server: STATUS      
  @ DRIVER MODE: Message from server: POSDATA     
  @ DRIVER MODE: Received positions 

  Initializing index lists of integration centers etc. from given atomic structure:
  Mapping all atomic coordinates to central unit cell.

  Initializing the k-points
  Using symmetry for reducing the k-points
  | k-points reduced from:       64 to       36
  | Number of k-points                             :        36
  The eigenvectors in the calculations are COMPLEX.
  | K-points in task   0:         6
  | K-points in task   1:         6
  | K-points in task   2:         6
  | K-points in task   3:         6
  | K-points in task   4:         6
  | K-points in task   5:         6
  | Number of basis functions in the Hamiltonian integrals :      3037
  | Number of basis functions in a single unit cell        :       200
  | Number of centers in hartree potential         :       990
  | Number of centers in hartree multipole         :       432
  | Number of centers in electron density summation:       312
  | Number of centers in basis integrals           :       312
  | Number of centers in integrals                 :       143
  | Number of centers in hamiltonian               :       312
  | Consuming         42 KiB for k_phase.
  | Number of super-cells (origin) [n_cells]                     :         729
  | Number of super-cells (after PM_index) [n_cells]             :          76
  | Number of super-cells in hamiltonian [n_cells_in_hamiltonian]:          76
  | Size of matrix packed + index [n_hamiltonian_matrix_size] :      325145

------------------------------------------------------------
          Begin self-consistency loop: Initialization.

          Date     :  20250610, Time     :  175719.818
------------------------------------------------------------
  Available memory per node after initialize_hartree_non_periodic_ewald [GB]:      4.79
  | Estimated reciprocal-space cutoff momentum G_max:         2.29706403 bohr^-1 .
  | Reciprocal lattice points for long-range Hartree potential:     250
  Available memory per node after initialize_recip_hartree_potential [GB]:      4.79
  Available memory per node after initialize_scalapack [GB]:      4.79
  Available memory per node after aims_elsi_init_scf [GB]:      4.79
  Available memory per node after initialize_fixed_grids [GB]:      4.79
  Partitioning the integration grid into batches with parallel hashing+maxmin method.
  | Number of batches:      525
  | Maximal batch size:     126
  | Minimal batch size:      53
  | Average batch size:      85.394
  | Standard deviation of batch sizes:      27.919

  Integration load balanced across     6 MPI tasks.
  Work distribution over tasks is as follows:
  Task     0 has       7526 integration points.
  Task     1 has       7478 integration points.
  Task     2 has       7480 integration points.
  Task     3 has       7465 integration points.
  Task     4 has       7443 integration points.
  Task     5 has       7440 integration points.
  Available memory per node after partition_grid [GB]:      4.79
  Initializing partition tables, free-atom densities, potentials, etc. across the integration grid (initialize_grid_storage).
  | initialize_grid_storage: Actual outermost partition radius vs. multipole_radius_free
  | (-- VB: in principle, multipole_radius_free should be larger, hence this output)
  | Species        1: Confinement radius =              4.999999999999999 AA, multipole_radius_free =              5.000694715736543 AA.
  | Species        1: outer_partition_radius set to              5.000694715736543 AA .
  | The sparse table of interatomic distances needs        348.72 kbyte instead of       778.75 kbyte of memory.
  | Net number of integration points:    44832
  | of which are non-zero points    :    39504
  | Numerical average free-atom electrostatic potential    :    -11.71277021 eV
  Available memory per node after initialize_grid_storage_p1 [GB]:      4.79
  Renormalizing the initial density to the exact electron count on the 3D integration grid.
  | Initial density: Formal number of electrons (from input files) :     112.0000000000
  | Integrated number of electrons on 3D grid     :     112.0149679024
  | Charge integration error                      :       0.0149679024
  | Normalization factor for density and gradient :       0.9998663759
  Renormalizing the free-atom superposition density to the exact electron count on the 3D integration grid.
  | Formal number of electrons (from input files) :     112.0000000000
  | Integrated number of electrons on 3D grid     :     112.0149679024
  | Charge integration error                      :       0.0149679024
  | Normalization factor for density and gradient :       0.9998663759
  Obtaining max. number of non-zero basis functions in each batch (get_n_compute_maxes).
  | Maximal number of non-zero basis functions:      637 in task     0
  | Maximal number of non-zero basis functions:      665 in task     1
  | Maximal number of non-zero basis functions:      675 in task     2
  | Maximal number of non-zero basis functions:      662 in task     3
  | Maximal number of non-zero basis functions:      644 in task     4
  | Maximal number of non-zero basis functions:      645 in task     5
  Available memory per node after get_n_compute_maxes_p1 [GB]:      4.79
  Allocating        1.465 MB for KS_eigenvector_complex
  Available memory per node after allocate_matrices [GB]:      4.79
  Available memory per node after init_comm_sparse_local_matrix_scalapack [GB]:      4.79
  Integrating Hamiltonian matrix: batch-based integration.
  Time summed over all CPUs for integration: real work        3.195 s, elapsed        3.256 s
  Available memory per node after integrate hamiltonian matrix [GB]:      4.77
  Integrating overlap matrix.
  Time summed over all CPUs for integration: real work        2.482 s, elapsed        2.521 s
  Available memory per node after integrate ovlp matrix [GB]:      4.77
  Available memory per node after ASI_callbacks invoke [GB]:      4.77
  Available memory per node after save_overlap_scalapack [GB]:      4.77

  Updating Kohn-Sham eigenvalues and eigenvectors using ELSI and the (modified) LAPACK eigensolver.

  Obtaining occupation numbers and electronic chemical potential using ELSI.
  | Note that, for insulating systems, the printed 'chemical potential' value is not uniquely defined.
  | It can be anywhere in the energy gap, as long as it correctly separates occupied and unoccupied states.
  | In systems with a gap, the physically relevant chemical potential is the VBM or HOMO.

  | Chemical potential (Fermi level):    -5.62068204 eV
  Available memory per node after advance_KS_solution [GB]:      4.77
  Writing Kohn-Sham eigenvalues.
  K-point:       1 at    0.000000    0.000000    0.000000 (in units of recip. lattice)

  State    Occupation    Eigenvalue [Ha]    Eigenvalue [eV]
      1       2.00000         -65.507409        -1782.54729
      2       2.00000         -65.507409        -1782.54729
      3       2.00000         -65.507329        -1782.54512
      4       2.00000         -65.507327        -1782.54506
      5       2.00000         -65.507327        -1782.54506
      6       2.00000         -65.507327        -1782.54506
      7       2.00000         -65.507246        -1782.54286
      8       2.00000         -65.507246        -1782.54286
      9       2.00000          -5.107495         -138.98201
     10       2.00000          -5.107462         -138.98113
     11       2.00000          -5.107368         -138.97854
     12       2.00000          -5.107366         -138.97849
     13       2.00000          -5.107366         -138.97849
     14       2.00000          -5.107365         -138.97848
     15       2.00000          -5.107270         -138.97588
     16       2.00000          -5.107238         -138.97501
     17       2.00000          -3.521843          -95.83422
     18       2.00000          -3.521814          -95.83342
     19       2.00000          -3.521801          -95.83309
     20       2.00000          -3.521799          -95.83301
     21       2.00000          -3.521789          -95.83275
     22       2.00000          -3.521739          -95.83139
     23       2.00000          -3.521729          -95.83112
     24       2.00000          -3.521700          -95.83033
     25       2.00000          -3.521674          -95.82964
     26       2.00000          -3.521530          -95.82571
     27       2.00000          -3.521521          -95.82547
     28       2.00000          -3.521520          -95.82544
     29       2.00000          -3.521520          -95.82543
     30       2.00000          -3.521516          -95.82532
     31       2.00000          -3.521509          -95.82514
     32       2.00000          -3.521357          -95.82100
     33       2.00000          -3.521339          -95.82052
     34       2.00000          -3.521309          -95.81969
     35       2.00000          -3.521301          -95.81947
     36       2.00000          -3.521250          -95.81809
     37       2.00000          -3.521245          -95.81794
     38       2.00000          -3.521238          -95.81775
     39       2.00000          -3.521227          -95.81746
     40       2.00000          -3.521208          -95.81694
     41       2.00000          -0.633377          -17.23507
     42       2.00000          -0.498321          -13.56000
     43       2.00000          -0.498004          -13.55138
     44       2.00000          -0.497689          -13.54280
     45       2.00000          -0.497689          -13.54280
     46       2.00000          -0.497377          -13.53432
     47       2.00000          -0.497058          -13.52563
     48       2.00000          -0.315713           -8.59100
     49       2.00000          -0.315413           -8.58283
     50       2.00000          -0.315393           -8.58228
     51       2.00000          -0.315391           -8.58222
     52       2.00000          -0.315373           -8.58174
     53       2.00000          -0.315075           -8.57362
     54       2.00000          -0.225352           -6.13215
     55       2.00000          -0.224910           -6.12013
     56       2.00000          -0.224467           -6.10805
     57       0.00000          -0.183829           -5.00223
     58       0.00000          -0.183719           -4.99926
     59       0.00000          -0.183432           -4.99143
     60       0.00000          -0.183431           -4.99141
     61       0.00000          -0.183149           -4.98373
     62       0.00000          -0.183038           -4.98072
     63       0.00000          -0.151899           -4.13338
     64       0.00000          -0.126371           -3.43873
     65       0.00000          -0.126113           -3.43172
     66       0.00000          -0.125858           -3.42478
     67       0.00000           0.072120            1.96249
     68       0.00000           0.072121            1.96252
     69       0.00000           0.077293            2.10324
     70       0.00000           0.113383            3.08531
     71       0.00000           0.113687            3.09359
     72       0.00000           0.113809            3.09689
     73       0.00000           0.113823            3.09729
     74       0.00000           0.113923            3.10000
     75       0.00000           0.114234            3.10846
     76       0.00000           0.171261            4.66025
     77       0.00000           0.171822            4.67552
     78       0.00000           0.171863            4.67663
     79       0.00000           0.171876            4.67699
     80       0.00000           0.171931            4.67849

  What follows are estimated values for band gap, HOMO, LUMO, etc.
  | They are estimated on a discrete k-point grid and not necessarily exact.
  | For converged numbers, create a DOS and/or band structure plot on a denser k-grid.

  Highest occupied state (VBM) at     -6.10805392 eV (relative to internal zero)
  | Occupation number:      2.00000000
  | K-point:       1 at    0.000000    0.000000    0.000000 (in units of recip. lattice)

  Lowest unoccupied state (CBM) at    -5.13331017 eV (relative to internal zero)
  | Occupation number:      0.00000000
  | K-point:      11 at    0.250000    0.000000    0.000000 (in units of recip. lattice)

  The gap value is above 0.2 eV. Unless you are using a very sparse k-point grid,
  this system is most likely an insulator or a semiconductor.
  ESTIMATED overall HOMO-LUMO gap:      0.97474375 eV between HOMO at k-point 1 and LUMO at k-point 11
  | This appears to be an indirect band gap.
  | Smallest direct gap :      1.10582203 eV for k_point 1 at    0.000000    0.000000    0.000000 (in units of recip. lattice)
  Calculating total energy contributions from superposition of free atom densities.

  Total energy components:
  | Sum of eigenvalues            :       -1311.56508813 Ha      -35689.50190988 eV
  | XC energy correction          :        -158.40778438 Ha       -4310.49512851 eV
  | XC potential correction       :         209.28421039 Ha        5694.91311860 eV
  | Free-atom electrostatic energy:       -1054.26323067 Ha      -28687.96213388 eV
  | Hartree energy correction     :          -0.00000000 Ha          -0.00000000 eV
  | Entropy correction            :          -0.00000000 Ha          -0.00000000 eV
  | ---------------------------
  | Total energy                  :       -2314.95189279 Ha      -62993.04605368 eV
  | Total energy, T -> 0          :       -2314.95189279 Ha      -62993.04605368 eV  <-- do not rely on this value for anything but (periodic) metals
  | Electronic free energy        :       -2314.95189279 Ha      -62993.04605368 eV

  Derived energy quantities:
  | Kinetic energy                :        2318.22063959 Ha       63081.99317964 eV
  | Electrostatic energy          :       -4474.76474800 Ha     -121764.54410481 eV
  | Energy correction for multipole
  | error in Hartree potential    :           0.00000000 Ha           0.00000000 eV
  | Sum of eigenvalues per atom                           :       -4461.18773874 eV
  | Total energy (T->0) per atom                          :       -7874.13075671 eV  <-- do not rely on this value for anything but (periodic) metals
  | Electronic free energy per atom                       :       -7874.13075671 eV
  Initialize hartree_potential_storage
  Max. number of atoms included in rho_multipole:            8

  End scf initialization - timings             :  max(cpu_time)    wall_clock(cpu1)
  | Time for scf. initialization                :        1.334 s           1.334 s
  | Boundary condition initialization           :        0.013 s           0.013 s
  | Integration                                 :        0.973 s           0.973 s
  | Solution of K.-S. eqns.                     :        0.227 s           0.227 s
  | Grid partitioning                           :        0.030 s           0.030 s
  | Preloading free-atom quantities on grid     :        0.091 s           0.091 s
  | Free-atom superposition energy              :        0.012 s           0.012 s
  | Total energy evaluation                     :        0.000 s           0.000 s

  Partial memory accounting:
  | Current value for overall tracked memory usage:
  |   Minimum:        7.711 MB (on task 0)
  |   Maximum:        7.711 MB (on task 0)
  |   Average:        7.711 MB
  | Peak value for overall tracked memory usage:
  |   Minimum:       12.644 MB (on task 0 after allocating wave)
  |   Maximum:       13.134 MB (on task 2 after allocating wave)
  |   Average:       12.871 MB
  | Largest tracked array allocation so far:
  |   Minimum:        3.096 MB (hamiltonian_shell on task 0)
  |   Maximum:        3.476 MB (hamiltonian_shell on task 2)
  |   Average:        3.271 MB
  Note:  These values currently only include a subset of arrays which are explicitly tracked.
  The "true" memory usage will be greater.
------------------------------------------------------------
  Time for density update prior                :  max(cpu_time)    wall_clock(cpu1)
  | self-consistency iterative process          :        0.829 s           0.829 s
------------------------------------------------------------
Convergence:    q app. |  density  | eigen (eV) | Etot (eV) | forces (eV/A) |       CPU time |     Clock time
  SCF    1 :  0.19E-12 |  0.20E+00 |   0.35E+01 |  0.69E-01 |             . |        1.601 s |        1.601 s
  SCF    2 : -0.35E-13 |  0.19E+00 |   0.57E+02 |  0.49E+00 |             . |        1.604 s |        1.604 s
  SCF    3 :  0.61E-13 |  0.25E-01 |  -0.28E+02 |  0.34E-01 |             . |        1.609 s |        1.609 s
  SCF    4 :  0.21E-12 |  0.15E-01 |   0.29E+01 |  0.29E-02 |             . |        1.609 s |        1.609 s
  SCF    5 :  0.11E-12 |  0.47E-02 |  -0.68E+00 |  0.88E-03 |             . |        1.606 s |        1.606 s
  SCF    6 :  0.17E-12 |  0.29E-03 |  -0.14E+00 |  0.63E-04 |             . |        1.606 s |        1.606 s
  SCF    7 :  0.28E-13 |  0.78E-04 |   0.68E-01 | -0.24E-04 |             . |        1.606 s |        1.607 s
  SCF    8 :  0.25E-12 |  0.26E-04 |  -0.29E-01 |  0.14E-04 |             . |        1.608 s |        1.608 s
  SCF    9 :  0.15E-12 |  0.31E-04 |   0.20E-01 | -0.49E-05 |             . |        1.609 s |        1.610 s
  SCF   10 : -0.28E-13 |  0.10E-05 |   0.58E-03 | -0.98E-07 |             . |        1.607 s |        1.607 s
  SCF   11 :  0.34E-13 |  0.19E-06 |  -0.15E-03 |  0.12E-07 |      0.44E-01 |       11.539 s |       11.539 s

  Total energy components:
  | Sum of eigenvalues            :       -1310.27737765 Ha      -35654.46152478 eV
  | XC energy correction          :        -158.51626927 Ha       -4313.44715271 eV
  | XC potential correction       :         209.42643067 Ha        5698.78312950 eV
  | Free-atom electrostatic energy:       -1054.26323067 Ha      -28687.96213388 eV
  | Hartree energy correction     :          -1.29961217 Ha         -35.36424645 eV
  | Entropy correction            :          -0.00000000 Ha          -0.00000000 eV
  | ---------------------------
  | Total energy                  :       -2314.93005908 Ha      -62992.45192831 eV
  | Total energy, T -> 0          :       -2314.93005908 Ha      -62992.45192831 eV  <-- do not rely on this value for anything but (periodic) metals
  | Electronic free energy        :       -2314.93005908 Ha      -62992.45192831 eV

  Derived energy quantities:
  | Kinetic energy                :        2317.46089256 Ha       63061.31941129 eV
  | Electrostatic energy          :       -4473.87468237 Ha     -121740.32418689 eV
  | Energy correction for multipole
  | error in Hartree potential    :           0.04357749 Ha           1.18580390 eV
  | Sum of eigenvalues per atom                           :       -4456.80769060 eV
  | Total energy (T->0) per atom                          :       -7874.05649104 eV  <-- do not rely on this value for anything but (periodic) metals
  | Electronic free energy per atom                       :       -7874.05649104 eV
  What follows are estimated values for band gap, HOMO, LUMO, etc.
  | They are estimated on a discrete k-point grid and not necessarily exact.
  | For converged numbers, create a DOS and/or band structure plot on a denser k-grid.

  Highest occupied state (VBM) at     -5.67654234 eV (relative to internal zero)
  | Occupation number:      2.00000000
  | K-point:       1 at    0.000000    0.000000    0.000000 (in units of recip. lattice)

  Lowest unoccupied state (CBM) at    -4.98993687 eV (relative to internal zero)
  | Occupation number:      0.00000000
  | K-point:      11 at    0.250000    0.000000    0.000000 (in units of recip. lattice)

  The gap value is above 0.2 eV. Unless you are using a very sparse k-point grid,
  this system is most likely an insulator or a semiconductor.
  ESTIMATED overall HOMO-LUMO gap:      0.68660547 eV between HOMO at k-point 1 and LUMO at k-point 11
  | This appears to be an indirect band gap.
  | Smallest direct gap :      0.80217939 eV for k_point 1 at    0.000000    0.000000    0.000000 (in units of recip. lattice)

  | Chemical Potential                          :    -5.33323960 eV
  | Note that, for insulating systems, the printed 'chemical potential' value is not uniquely defined.
  | It can be anywhere in the energy gap, as long as it correctly separates occupied and unoccupied states.
  | In systems with a gap, the physically relevant chemical potential is the VBM or HOMO.

  Self-consistency cycle converged.

  Removing unitary transformations (pure translations, rotations) from forces on atoms.
  Atomic forces before filtering:
  | Net force on center of mass :   0.485500E-06  0.140972E-07  0.845850E-08 eV/A
  Atomic forces after filtering:
  | Net force on center of mass :  -0.111504E-16  0.000000E+00 -0.278760E-17 eV/A

  Energy and forces in a compact form:
  | Total energy uncorrected      :         -0.629924519283108E+05 eV
  | Total energy corrected        :         -0.629924519283108E+05 eV  <-- do not rely on this value for anything but (periodic) metals
  | Electronic free energy        :         -0.629924519283108E+05 eV
  Total atomic forces (unitary forces cleaned) [eV/Ang]:
  |    1         -0.102328276760845E+00          0.302185751201939E-08         -0.308665120532034E-08
  |    2         -0.162057454330362E-01         -0.175101473330848E-08          0.675695647383100E-08
  |    3          0.623412920665016E-02         -0.589429269823062E-08          0.501518190881523E-08
  |    4          0.623412207516466E-02          0.101115659421650E-07         -0.545086960002842E-08
  |    5          0.266727650782666E-01          0.152826510938920E-01          0.152826499598136E-01
  |    6          0.266727693055404E-01         -0.152826511056091E-01         -0.152826442532958E-01
  |    7          0.263601180043643E-01         -0.148306431498066E-01          0.148306306620995E-01
  |    8          0.263601185238954E-01          0.148306376734076E-01         -0.148306396032348E-01

  Removing unitary transformations (pure translations, rotations) from forces on atoms.
  Atomic forces before filtering:
  | Net force on center of mass :  -0.111504E-16  0.000000E+00 -0.278760E-17 eV/A
  Atomic forces after filtering:
  | Net force on center of mass :   0.111504E-16  0.000000E+00  0.000000E+00 eV/A
  @ DRIVER - WARNING: the stress tensor will not be computed
 ------------------------------------------------------------------------
 Atomic structure that was used in the preceding time step of the wrapper
                         x [A]             y [A]             z [A]
  lattice_vector         5.64311022        0.00000000        0.00000000
  lattice_vector         0.00000000        5.64311022       -0.00000000
  lattice_vector        -0.00000000       -0.00000000        5.64311022

            atom         0.01000000        0.00000000        0.00000000  Si
            atom         0.00000000        2.82155511        2.82155511  Si
            atom         2.82155511       -0.00000000        2.82155511  Si
            atom         2.82155511        2.82155511        0.00000000  Si
            atom         1.41077756        1.41077756        1.41077756  Si
            atom         1.41077756        4.23233267        4.23233267  Si
            atom         4.23233267        1.41077756        4.23233267  Si
            atom         4.23233267        4.23233267        1.41077756  Si
 ------------------------------------------------------------------------
  @ DRIVER MODE: Message from server: STATUS      
  @ DRIVER MODE: Message from server: GETFORCE    
  @ DRIVER MODE: Returning v,forces,stress 

------------------------------------------------------------------------------
  Final output of selected total energy values:

  The following output summarizes some interesting total energy values
  at the end of a run (AFTER all relaxation, molecular dynamics, etc.).

  | Total energy of the DFT / Hartree-Fock s.c.f. calculation      :         -62992.451928311 eV
  | Final zero-broadening corrected energy (caution - metals only) :         -62992.451928311 eV
  | For reference only, the value of 1 Hartree used in FHI-aims is :             27.211384500 eV
  | For reference only, the overall average (free atom contribution
  | + realspace contribution) of the electrostatic potential after
  | s.c.f. convergence is                                          :            -11.497001587 eV

  Before relying on these values, please be sure to understand exactly which
  total energy value is referred to by a given number. Different objects may
  all carry the same name 'total energy'. Definitions:

  Total energy of the DFT / Hartree-Fock s.c.f. calculation:
  | Note that this energy does not include ANY quantities calculated after the
  | s.c.f. cycle, in particular not ANY RPA, MP2, etc. many-body perturbation terms.

  Final zero-broadening corrected energy:
  | For metallic systems only, a broadening of the occupation numbers at the Fermi
  | level can be extrapolated back to zero broadening by an electron-gas inspired
  | formula. For all systems that are not real metals, this value can be
  | meaningless and should be avoided.

------------------------------------------------------------------------------
  Methods described in the following list of references were used in this FHI-aims run.
  If you publish the results, please make sure to cite these reference if they apply.
  FHI-aims is an academic code, and for our developers (often, Ph.D. students
  and postdocs), scientific credit in the community is essential.
  Thank you for helping us!

  For any use of FHI-aims, please cite:

    Volker Blum, Ralf Gehrke, Felix Hanke, Paula Havu, Ville Havu,
    Xinguo Ren, Karsten Reuter, and Matthias Scheffler
    'Ab initio molecular simulations with numeric atom-centered orbitals'
    Computer Physics Communications 180, 2175-2196 (2009)
    http://doi.org/10.1016/j.cpc.2009.06.022


  The provided symmetry information was generated with SPGlib:

    Atsushi Togo, Yusuke Seto, Dimitar Pashov
    SPGlib 1.7.3 obtained from http://spglib.sourceforge.net
    Licence: New BSD license
    Copyright (C) 2008 Atsushi Togo


  The ELSI infrastructure was used in your run to solve the Kohn-Sham electronic structure.
  Please check out https://wordpress.elsi-interchange.org to learn more.
  If scalability is important for your project, please acknowledge ELSI by citing:

    V. W-z. Yu, F. Corsetti, A. Garcia, W. P. Huhn, M. Jacquelin, W. Jia,
    B. Lange, L. Lin, J. Lu, W. Mi, A. Seifitokaldani, A. Vazquez-Mayagoitia,
    C. Yang, H. Yang, and V. Blum
    'ELSI: A unified software interface for Kohn-Sham electronic structure solvers'
    Computer Physics Communications 222, 267-285 (2018).
    http://doi.org/10.1016/j.cpc.2017.09.007


  For the real-space grid partitioning and parallelization used in this calculation, please cite:

    Ville Havu, Volker Blum, Paula Havu, and Matthias Scheffler,
    'Efficient O(N) integration for all-electron electronic structure calculation'
    'using numerically tabulated basis functions'
    Journal of Computational Physics 228, 8367-8379 (2009).
    http://doi.org/10.1016/j.jcp.2009.08.008

  Of course, there are many other important community references, e.g., those cited in the
  above references. Our list is limited to references that describe implementations in the
  FHI-aims code. The reason is purely practical (length of this list) - please credit others as well.
------------------------------------------------------------
Warnings summary:

At least    0 warnings were raised during execution.

------------------------------------------------------------
          Leaving FHI-aims.
          Date     :  20250610, Time     :  175749.632

          Computational steps:
          | Number of self-consistency cycles          :           11
          | Number of SCF (re)initializations          :            1

          Detailed time accounting                     :  max(cpu_time)    wall_clock(cpu1)
          | Total time                                  :       29.980 s          29.982 s
          | Preparation time                            :        0.080 s           0.080 s
          | Boundary condition initalization            :        0.013 s           0.013 s
          | Grid partitioning                           :        0.030 s           0.030 s
          | Preloading free-atom quantities on grid     :        0.091 s           0.091 s
          | Free-atom superposition energy              :        0.012 s           0.012 s
          | Total time for integrations                 :        6.932 s           6.931 s
          | Total time for solution of K.-S. equations  :        2.103 s           2.106 s
          | Total time for density & force components   :       19.226 s          19.228 s
          | Total time for mixing                       :        0.005 s           0.003 s
          | Total time for Hartree multipole update     :        0.009 s           0.009 s
          | Total time for Hartree multipole sum        :        0.959 s           0.960 s
          | Total time for total energy evaluation      :        0.001 s           0.000 s
          | Total time NSC force correction             :        0.396 s           0.396 s
          | Total time for scaled ZORA corrections      :        0.000 s           0.000 s

          Partial memory accounting:
          | Residual value for overall tracked memory usage across tasks:     0.000000 MB (should be 0.000000 MB)
          | Peak values for overall tracked memory usage:
          |   Minimum:       20.474 MB (on task 0 after allocating d_wave)
          |   Maximum:       21.359 MB (on task 2 after allocating d_wave)
          |   Average:       20.879 MB
          | Largest tracked array allocation:
          |   Minimum:        3.096 MB (hamiltonian_shell on task 0)
          |   Maximum:        3.476 MB (hamiltonian_shell on task 2)
          |   Average:        3.271 MB
          Note:  These values currently only include a subset of arrays which are explicitly tracked.
          The "true" memory usage will be greater.

          Have a nice day.
------------------------------------------------------------
