------------------------------------------------------------
          Invoking FHI-aims ...

          When using FHI-aims, please cite the following reference:

            Volker Blum, Ralf Gehrke, Felix Hanke, Paula Havu,
            Ville Havu, Xinguo Ren, Karsten Reuter, and Matthias Scheffler,
            'Ab Initio Molecular Simulations with Numeric Atom-Centered Orbitals',
            Computer Physics Communications 180, 2175-2196 (2009)

          In addition, many other developments in FHI-aims are likely important for
          your particular application. If so, please cite them. A partial list of references
          is written at the end of this file. Thank you for giving credit to the authors
          of these developments.

          For general information about FHI-aims please find us at

            https://fhi-aims.org

          Online tutorials can be found at

            https://fhi-aims-club.gitlab.io/tutorials/tutorials-overview/

          For any questions about FHI-aims, please visit our slack channel at

            https://fhi-aims.slack.com

          and our main development and support site at

            https://aims-git.rz-berlin.mpg.de .

          The latter site, in particular, has a wiki to collect information, as well
          as an issue tracker to log discussions, suggest improvements, and report issues
          or bugs. https://aims-git.rz-berlin.mpg.de is also the main development site
          of the project and all new and updated code versions can be obtained there.
          Please send an email to aims-coordinators@fhi-berlin.mpg.de and we will add
          you to these sites. They are for you and everyone is welcome there.

------------------------------------------------------------



  Date     :  20250610, Time     :  144548.408
  Time zero on CPU 1             :   0.961880000000000E-01  s.
  Internal wall clock time zero  :           518798748.408  s.

  FHI-aims created a unique identifier for this run for later identification
  aims_uuid : 1DFFFFCB-8657-484D-A35E-1FF05E61DB75

  Build configuration of the current instance of FHI-aims
  -------------------------------------------------------
  FHI-aims version      : 240206
  Commit number         : 583c55b2e
  CMake host system     : Darwin-23.4.0
  CMake version         : 3.29.1
  Fortran compiler      : /opt/homebrew/bin/mpif90 (GNU) version 13.2.0
  Fortran compiler flags: -O3 -fallow-argument-mismatch -ffree-line-length-none -framework accelerate
  C compiler            : /opt/homebrew/bin/mpicc (AppleClang) version 15.0.0.15000309
  C compiler flags      : -O3 -framework accelerate
  C++ compiler          : /opt/homebrew/bin/mpic++ (AppleClang) version 15.0.0.15000309
  C++ compiler flags    : -O3 -framework accelerate
  HIP compiler          :
  HIP compiler flags    :
  HIP GPU arch          :
  Using MPI
  Using ScaLAPACK
  Using LibXC
  Using i-PI
  Using RLSY
  Linking against: /Users/carbogno/Codes/2023_Scalapack/libscalapack.a

  Using        8 parallel tasks.
  Task        0 on host ThMac05.local reporting.
  Task        1 on host ThMac05.local reporting.
  Task        2 on host ThMac05.local reporting.
  Task        3 on host ThMac05.local reporting.
  Task        4 on host ThMac05.local reporting.
  Task        5 on host ThMac05.local reporting.
  Task        6 on host ThMac05.local reporting.
  Task        7 on host ThMac05.local reporting.

  Memory overcommitment: We could not find /proc/sys/vm/overcommit_memory on your system.

  Obtaining array dimensions for all initial allocations:
  
  -----------------------------------------------------------------------
  Parsing control.in (first pass over file, find array dimensions only).
  The contents of control.in will be repeated verbatim below
  unless switched off by setting 'verbatim_writeout .false.' .
  in the first line of control.in .
  -----------------------------------------------------------------------
  
  #===============================================================================
  # FHI-aims file: ./control.in
  # Created using the Atomic Simulation Environment (ASE)
  # Tue Jun 10 14:45:48 2025
  #===============================================================================
  xc                                 pw-lda
  k_grid                             4 4 4
  sc_accuracy_rho                    1e-06
  relativistic                       atomic_zora scalar
  output_level                       MD_light
  use_pimd_wrapper                   localhost 10002
  #===============================================================================
  
  ################################################################################
  #
  #  FHI-aims code project
  #  VB, Fritz-Haber Institut, 2009
  #
  #  Suggested "light" defaults for Si atom (to be pasted into control.in file)
  #  Be sure to double-check any results obtained with these settings for post-processing,
  #  e.g., with the "tight" defaults and larger basis sets.
  #
  #  2020/09/08 Added f function to "light" after reinspection of Delta test outcomes.
  #             This was done for all of Al-Cl and is a tricky decision since it makes
  #             "light" calculations measurably more expensive for these elements.
  #             Nevertheless, outcomes for P, S, Cl (and to some extent, Si) appear
  #             to justify this choice.
  #
  ################################################################################
    species        Si
  #     global species definitions
      nucleus             14
      mass                28.0855
  #
      l_hartree           4
  #
      cut_pot             3.5          1.5  1.0
      basis_dep_cutoff    1e-4
  #
      radial_base         42 5.0
      radial_multiplier   1
      angular_grids       specified
        division   0.5866   50
        division   0.9616  110
        division   1.2249  194
        division   1.3795  302
  #      division   1.4810  434
  #      division   1.5529  590
  #      division   1.6284  770
  #      division   1.7077  974
  #      division   2.4068 1202
  #      outer_grid   974
        outer_grid 302
  ################################################################################
  #
  #  Definition of "minimal" basis
  #
  ################################################################################
  #     valence basis states
      valence      3  s   2.
      valence      3  p   2.
  #     ion occupancy
      ion_occ      3  s   1.
      ion_occ      3  p   1.
  ################################################################################
  #
  #  Suggested additional basis functions. For production calculations,
  #  uncomment them one after another (the most important basis functions are
  #  listed first).
  #
  #  Constructed for dimers: 1.75 A, 2.0 A, 2.25 A, 2.75 A, 3.75 A
  #
  ################################################################################
  #  "First tier" - improvements: -571.96 meV to -37.03 meV
       hydro 3 d 4.2
       hydro 2 p 1.4
       hydro 4 f 6.2
       ionic 3 s auto
  #  "Second tier" - improvements: -16.76 meV to -3.03 meV
  #     hydro 3 d 9
  #     hydro 5 g 9.4
  #     hydro 4 p 4
  #     hydro 1 s 0.65
  #  "Third tier" - improvements: -3.89 meV to -0.60 meV
  #     ionic 3 d auto
  #     hydro 3 s 2.6
  #     hydro 4 f 8.4
  #     hydro 3 d 3.4
  #     hydro 3 p 7.8
  #  "Fourth tier" - improvements: -0.33 meV to -0.11 meV
  #     hydro 2 p 1.6
  #     hydro 5 g 10.8
  #     hydro 5 f 11.2
  #     hydro 3 d 1
  #     hydro 4 s 4.5
  #  Further basis functions that fell out of the optimization - noise
  #  level... < -0.08 meV
  #     hydro 4 d 6.6
  #     hydro 5 g 16.4
  #     hydro 4 d 9
  
  -----------------------------------------------------------------------
  Completed first pass over input file control.in .
  -----------------------------------------------------------------------
  
  
  -----------------------------------------------------------------------
  Parsing geometry.in (first pass over file, find array dimensions only).
  The contents of geometry.in will be repeated verbatim below
  unless switched off by setting 'verbatim_writeout .false.' .
  in the first line of geometry.in .
  -----------------------------------------------------------------------
  
  #=======================================================
  # FHI-aims file: ./geometry.in
  # Created using the Atomic Simulation Environment (ASE)
  # Tue Jun 10 14:45:48 2025
  #=======================================================
  lattice_vector 5.4088325884509993 0.0000000000639995 0.0000000001369997
  lattice_vector 0.0000000000629998 5.4088325742939993 0.0000000001030003
  lattice_vector 0.0000000001370002 0.0000000001020002 5.4088325742309999
  atom_frac -0.0034080266135333 0.0113143610032762 -0.0107978582826923 Si
  atom_frac -0.0058761336639016 0.5060191834360835 0.5065480418341478 Si
  atom_frac 0.4952936795999694 -0.0180343359219218 0.4965833233286635 Si
  atom_frac 0.4913413371708494 0.4941463234444520 0.0029850971295265 Si
  atom_frac 0.2563110940161298 0.2337416003048275 0.2506775843068668 Si
  atom_frac 0.2658609194229671 0.7504969151768723 0.7600015303594375 Si
  atom_frac 0.7498079183611840 0.2678590383636477 0.7379208074259479 Si
  atom_frac 0.7506692116469521 0.7544569142092606 0.2560814738969763 Si
  
  -----------------------------------------------------------------------
  Completed first pass over input file geometry.in .
  -----------------------------------------------------------------------
  

  Basic array size parameters:
  | Number of species                 :        1
  | Number of atoms                   :        8
  | Number of lattice vectors         :        3
  | Max. basis fn. angular momentum   :        3
  | Max. atomic/ionic basis occupied n:        3
  | Max. number of basis fn. types    :        3
  | Max. radial fns per species/type  :        5
  | Max. logarithmic grid size        :     1346
  | Max. radial integration grid size :       42
  | Max. angular integration grid size:      302
  | Max. angular grid division number :        8
  | Radial grid for Hartree potential :     1346
  | Number of spin channels           :        1

------------------------------------------------------------
          Reading file control.in.
------------------------------------------------------------
  XC: Using Perdew-Wang parametrisation of Ceperley-Alder LDA.
  Found k-point grid:         4         4         4
  Convergence accuracy of self-consistent charge density:  0.1000E-05
  Scalar relativistic treatment of kinetic energy: on-site free-atom approximation to ZORA.
  Requested output level: MD_light
  Using external wrapper (i-PI) for performing (path integral) molecular dynamics
  **Attention: initial geometry.in file will be ignored!

  Reading configuration options for species Si                  .
  | Found nuclear charge :  14.0000
  | Found atomic mass :    28.085500000000000      amu
  | Found l_max for Hartree potential  :   4
  | Found cutoff potl. onset [A], width [A], scale factor :    3.50000    1.50000    1.00000
  | Threshold for basis-dependent cutoff potential is   0.100000E-03
  | Found data for basic radial integration grid :    42 points, outermost radius =    5.000 A
  | Found multiplier for basic radial grid :   1
  | Found angular grid specification: user-specified.
  | Specified grid contains     5 separate shells.
  | Check grid settings after all constraints further below.
  | Found free-atom valence shell :  3 s   2.000
  | Found free-atom valence shell :  3 p   2.000
  | Found free-ion valence shell :  3 s   1.000
  | Found free-ion valence shell :  3 p   1.000
  | Found hydrogenic basis function :  3 d   4.200
  | Found hydrogenic basis function :  2 p   1.400
  | Found hydrogenic basis function :  4 f   6.200
  | Found ionic basis function :  3 s , default cutoff radius.
  Species Si                  : Missing cutoff potential type.
  Defaulting to exp(1/x)/(1-x)^2 type cutoff potential.
  Species Si: No 'logarithmic' tag. Using default grid for free atom:
  | Default logarithmic grid data [bohr] : 0.1000E-03 0.1000E+03 0.1012E+01
  | Will include ionic basis functions of  2.0-fold positive Si                   ion.
  Species Si: On-site basis accuracy parameter (for Gram-Schmidt orthonormalisation) not specified.
  Using default value basis_acc =  0.1000000E-03.
  Species Si                  : Using default innermost maximum threshold i_radial=  2 for radial functions.
  Species Si                  : Default cutoff onset for free atom density etc. : 0.35000000E+01 AA.
  Species Si                  : Basic radial grid will be enhanced according to radial_multiplier =   1, to contain    42 grid points.

  Finished reading input file 'control.in'.

------------------------------------------------------------


------------------------------------------------------------
          Reading geometry description geometry.in.
------------------------------------------------------------
  | The smallest distance between any two atoms is         2.22975076 AA.
  | The first atom of this pair is atom number                      2 .
  | The second atom of this pair is atom number                     7 .
  | Wigner-Seitz cell of the first atom image           0     1     0 .
  | (The Wigner-Seitz cell of the second atom is 0 0 0  by definition.)

  Symmetry information by spglib:
  | Precision set to  0.1E-04
  | Number of Operations  : 1
  | Space group           : 1
  | International         : P1
  | Schoenflies           : C1^1
  Input structure read successfully.
  The structure contains        8 atoms,  and a total of        112.000 electrons.

  Input geometry:
  | Unit cell:
  |        5.40883259        0.00000000        0.00000000
  |        0.00000000        5.40883257        0.00000000
  |        0.00000000        0.00000000        5.40883257
  | Atomic structure:
  |       Atom                x [A]            y [A]            z [A]
  |    1: Species Si           -0.01843345        0.06119748       -0.05840381
  |    2: Species Si           -0.03178302        2.73697304        2.73983355
  |    3: Species Si            2.67896060       -0.09754470        2.68593606
  |    4: Species Si            2.65758304        2.67275473        0.01614589
  |    5: Species Si            1.38634380        1.26426918        1.35587308
  |    6: Species Si            1.43799721        4.05931216        4.11072103
  |    7: Species Si            4.05558550        1.44880469        3.99129010
  |    8: Species Si            4.06024410        4.08073113        1.38510182

  Lattice parameters for 3D lattice (in Angstroms) :     5.408833    5.408833    5.408833
  Angle(s) between unit vectors (in degrees)       :    90.000000   90.000000   90.000000


  Quantities derived from the lattice vectors (in Angstrom^-1):
  | Reciprocal lattice vector 1:  1.161653 -0.000000 -0.000000
  | Reciprocal lattice vector 2: -0.000000  1.161653 -0.000000
  | Reciprocal lattice vector 3: -0.000000 -0.000000  1.161653
  | Unit cell volume                               :   0.158238E+03  Angstrom^3

  Slab Identifier: This seems to be a bulk system.

  Finished reading input file 'geometry.in'.



  Consistency checks for stacksize environment parameter are next.

  | Maximum stacksize for task 0: 63 [Mb]
  | Maximum stacksize for task 1: 63 [Mb]
  | Maximum stacksize for task 2: 63 [Mb]
  | Maximum stacksize for task 3: 63 [Mb]
  | Maximum stacksize for task 4: 63 [Mb]
  | Maximum stacksize for task 5: 63 [Mb]
  | Maximum stacksize for task 6: 63 [Mb]
  | Maximum stacksize for task 7: 63 [Mb]
   *** Stacksize is not set to unlimited. This might cause problems...
  | Current stacksize for task 0: 63 [Mb]
  | Current stacksize for task 1: 63 [Mb]
  | Current stacksize for task 2: 63 [Mb]
  | Current stacksize for task 3: 63 [Mb]
  | Current stacksize for task 4: 63 [Mb]
  | Current stacksize for task 5: 63 [Mb]
  | Current stacksize for task 6: 63 [Mb]
  | Current stacksize for task 7: 63 [Mb]

  Consistency checks for the contents of control.in are next.

  MPI_IN_PLACE appears to work with this MPI implementation.
  | Keeping use_mpi_in_place .true. (see manual).
  Target number of points in a grid batch is not set. Defaulting to  100
  Method for grid partitioning is not set. Defaulting to parallel hash+maxmin partitioning.
  Batch size limit is not set. Defaulting to    200
  By default, will store active basis functions for each batch.
  If in need of memory, prune_basis_once .false. can be used to disable this option.
  communication_type for Hartree potential was not specified.
  Defaulting to calc_hartree .
  Defaulting to Pulay charge density mixer.
  Pulay mixer: Number of relevant iterations not set.
  Defaulting to    8 iterations.
  Pulay mixer: Number of initial linear mixing iterations not set.
  Defaulting to    0 iterations.
  Work space size for distributed Hartree potential not set.
  Defaulting to   0.200000E+03 MB.
  Mixing parameter for charge density mixing has not been set.
  Using default: charge_mix_param =     0.0500.
  The mixing parameter will be adjusted in iteration number     2 of the first full s.c.f. cycle only.
  Algorithm-dependent basis array size parameters:
  | n_max_pulay                         :        8
  Maximum number of self-consistency iterations not provided.
  Presetting  1000 iterations.
  Presetting      1001 iterations before the initial mixing cycle
  is restarted anyway using the sc_init_iter criterion / keyword.
  Presetting a factor      1.000 between actual scf density residual
  and density convergence criterion sc_accuracy_rho below which sc_init_iter
  takes no effect.
  Calculation of forces was not defined in control.in. No forces will be calculated.
  Geometry relaxation not requested: no relaxation will be performed.
  Force calculation: scf convergence accuracy of forces not set.
  Defaulting to 'sc_accuracy_forces not_checked'.
  Handling of forces: Unphysical translation and rotation will be removed from forces.
  No accuracy limit for integral partition fn. given. Defaulting to  0.1000E-14.
  No threshold value for u(r) in integrations given. Defaulting to  0.1000E-05.
  No occupation type (smearing scheme) given. Defaulting to Gaussian broadening, width =  0.1000E-01 eV.
  The width will be adjusted in iteration number     2 of the first full s.c.f. cycle only.
  S.C.F. convergence parameters will be adjusted in iteration number     2 of the first full s.c.f. cycle only.
  No accuracy for occupation numbers given. Defaulting to  0.1000E-12.
  No threshold value for occupation numbers given. Defaulting to  0.0000E+00.
  No accuracy for fermi level given. Defaulting to  0.1000E-19.
  Maximum # of iterations to find E_F not set. Defaulting to  200.
  Preferred method for the eigenvalue solver ('KS_method') not specified in 'control.in'.
  Defaulting to serial version, LAPACK (via ELSI), since more k-points than CPUs available.
  Will not use alltoall communication since running on < 1024 CPUs.
  Threshold for basis singularities not set.
  Default threshold for basis singularities:  0.1000E-04
  partition_type (choice of integration weights) for integrals was not specified.
  | Using a version of the partition function of Stratmann and coworkers ('stratmann_sparse').
  | At each grid point, the set of atoms used to build the partition table is smoothly restricted to
  | only those atoms whose free-atom density would be non-zero at that grid point.
  Partitioning for Hartree potential was not defined. Using partition_type for integrals.
  | Adjusted default value of keyword multip_moments_threshold to:       0.10000000E-11
  | This value may affect high angular momentum components of the Hartree potential in periodic systems.
  Spin handling was not defined in control.in. Defaulting to unpolarized case.
  No q(lm)/r^(l+1) cutoff set for long-range Hartree potential.
  | Using default value of  0.100000E-09 .
  | Verify using the multipole_threshold keyword.
  Defaulting to new monopole extrapolation.
  Density update method: automatic selection selected.
  Using density matrix based charge density update.
  Using density matrix based charge density update.
  Using packed matrix style: index .
  Defaulting to use time-reversal symmetry for k-point grid.
  Charge integration errors on the 3D integration grid will be compensated
  by explicit normalization and distribution of residual charges.
  Use the "compensate_multipole_errors" flag to change this behaviour.
  Set 'collect_eigenvectors' to be '.true.' for all serial calculations. This is mandatory.
  Set 'collect_eigenvectors' to be '.true.' for KS_method lapack_fast and serial.

  Consistency checks for the contents of geometry.in are next.


  Range separation radius for Ewald summation (hartree_convergence_parameter):      3.87147161 bohr.
  Number of empty states per atom not set in control.in - providing a guess from actual geometry.
  | Total number of empty states used during s.c.f. cycle:       24
  If you use a very high smearing, use empty_states (per atom!) in control.in to increase this value.

  Structure-dependent array size parameters: 
  | Maximum number of distinct radial functions  :        9
  | Maximum number of basis functions            :      200
  | Number of Kohn-Sham states (occupied + empty):       80
------------------------------------------------------------

************************** W A R N I N G *******************************
* You are using the PIMD wrapper. Specifications and positions         *
* in geometry.in will be IGNORED - all is received from the wrapper.   *
* Please make sure species are declared in the same order in           *
* geometry.in and wrapper input.                                       *
************************************************************************


  Performing system and environment tests:
  | Environment variable OMP_NUM_THREADS correctly set to 1.
  | Checking for ScaLAPACK...
  | Testing pdtran()...
  | All pdtran() tests passed.

------------------------------------------------------------
          Preparing all fixed parts of the calculation.
------------------------------------------------------------
  Determining machine precision:
     2.2250738585072014E-308
  Setting up grids for atomic and cluster calculations.

  Creating wave function, potential, and density for free atoms.
  Runtime choices for atomic solver:
  | atomic solver xc        : PW-LDA
  | compute density gradient: 0
  | compute kinetic density : F

  Species: Si

  List of occupied orbitals and eigenvalues:
    n    l              occ      energy [Ha]    energy [eV]
    1    0           2.0000       -65.491668     -1782.1190
    2    0           2.0000        -5.087967      -138.4506
    3    0           2.0000        -0.391471       -10.6525
    2    1           6.0000        -3.502246       -95.3010
    3    1           2.0000        -0.143943        -3.9169


  Adding cutoff potential to free-atom effective potential.
  Creating fixed part of basis set: Ionic, confined, hydrogenic.

  Si                   ion:

  List of free ionic orbitals and eigenvalues:
    n    l      energy [Ha]    energy [eV]
    1    0       -66.364436     -1805.8682
    2    0        -5.935799      -161.5213
    3    0        -1.078166       -29.3384
    2    1        -4.351123      -118.4001
    3    1        -0.781733       -21.2720


  List of ionic basis orbitals and eigenvalues:
    n    l      energy [Ha]    energy [eV]    outer radius [A]
    3    0        -1.078146       -29.3378       4.214062


  Si                   hydrogenic:

  List of hydrogenic basis orbitals: 
    n    l      effective z      eigenvalue [eV]  inner max. [A]     outer max. [A]     outer radius [A]   
    3    2         4.200000       -26.6624           1.139231           1.139231           4.534782
    2    1         1.400000        -6.4613           1.472672           1.472672           4.590560
    4    3         6.200000       -32.6778           1.368518           1.368518           4.534782

  Creating atomic-like basis functions for current effective potential.

  Species Si                  :

  List of atomic basis orbitals and eigenvalues:
    n    l      energy [Ha]    energy [eV]    outer radius [A]
    1    0       -65.491668     -1782.1190       0.789468
    2    0        -5.087967      -138.4506       2.815114
    3    0        -0.391471       -10.6525       4.534782
    2    1        -3.502246       -95.3010       3.259919
    3    1        -0.143943        -3.9169       4.590560

  Assembling full basis from fixed parts.
  | Species Si :   atomic orbital   1 s accepted.
  | Species Si :   atomic orbital   2 s accepted.
  | Species Si :    ionic orbital   3 s accepted.
  | Species Si :   atomic orbital   3 s accepted.
  | Species Si :   atomic orbital   2 p accepted.
  | Species Si :   atomic orbital   3 p accepted.
  | Species Si :    hydro orbital   2 p accepted.
  | Species Si :    hydro orbital   3 d accepted.
  | Species Si :    hydro orbital   4 f accepted.

  Basis size parameters after reduction:
  | Total number of radial functions:        9
  | Total number of basis functions :      200

  Per-task memory consumption for arrays in subroutine allocate_ext:
  |           3.106072MB.
  Testing on-site integration grid accuracy.
  |  Species  Function  <phi|h_atom|phi> (log., in eV)  <phi|h_atom|phi> (rad., in eV)
           1        1              -1782.1189727076              -1782.1182429251
           1        2               -138.4506350693               -138.4506310079
           1        3                -10.3030408815                -10.3029120678
           1        4                  5.0238999146                  4.9457540310 ***
           1        5                -95.3009689499                -95.3009689315
           1        6                 -3.9266496564                 -3.9420918374
           1        7                  6.3453628447                  6.1632372158 ***
           1        8                  6.2883050744                  6.2861881409
           1        9                 19.3222464920                 19.3177041052
 * Note: Onsite integrals marked "***" above are less accurate than
 * onsite_accuracy_threshold =    0.03000 eV. Usually, this is harmless.
 * When in doubt, tighten the "radial" and/or "radial_multiplier" flags to check.

  Preparing densities etc. for the partition functions (integrals / Hartree potential).

  Preparations completed.
  max(cpu_time)          :      0.086 s.
  Wall clock time (cpu1) :      0.091 s.
------------------------------------------------------------

  Initializing index lists of integration centers etc. from given atomic structure:
  Mapping all atomic coordinates to central unit cell.

  Initializing the k-points
  Using symmetry for reducing the k-points
  | k-points reduced from:       64 to       36
  | Number of k-points                             :        36
  The eigenvectors in the calculations are COMPLEX.
  | K-points in task   0:         4
  | K-points in task   1:         5
  | K-points in task   2:         5
  | K-points in task   3:         5
  | K-points in task   4:         5
  | K-points in task   5:         4
  | K-points in task   6:         4
  | K-points in task   7:         4
  | Number of basis functions in the Hamiltonian integrals :      3163
  | Number of basis functions in a single unit cell        :       200
  | Number of centers in hartree potential         :      1039
  | Number of centers in hartree multipole         :       502
  | Number of centers in electron density summation:       330
  | Number of centers in basis integrals           :       365
  | Number of centers in integrals                 :       143
  | Number of centers in hamiltonian               :       330
  | Consuming         43 KiB for k_phase.
  | Number of super-cells (origin) [n_cells]                     :         729
  | Number of super-cells (after PM_index) [n_cells]             :          78
  | Number of super-cells in hamiltonian [n_cells_in_hamiltonian]:          78
  | Size of matrix packed + index [n_hamiltonian_matrix_size] :      353096
* Skipping the SCF initialization for now - done inside wrapper      *
  @ DRIVER MODE: Connecting to host:port localhost       10002
  @ DRIVER MODE: Message from server: STATUS      
  @ DRIVER MODE: Message from server: POSDATA     
  @ DRIVER MODE: Received positions 

  Initializing index lists of integration centers etc. from given atomic structure:
  Mapping all atomic coordinates to central unit cell.

  Initializing the k-points
  Using symmetry for reducing the k-points
  | k-points reduced from:       64 to       36
  | Number of k-points                             :        36
  The eigenvectors in the calculations are COMPLEX.
  | K-points in task   0:         4
  | K-points in task   1:         5
  | K-points in task   2:         5
  | K-points in task   3:         5
  | K-points in task   4:         5
  | K-points in task   5:         4
  | K-points in task   6:         4
  | K-points in task   7:         4
  | Number of basis functions in the Hamiltonian integrals :      3163
  | Number of basis functions in a single unit cell        :       200
  | Number of centers in hartree potential         :      1039
  | Number of centers in hartree multipole         :       502
  | Number of centers in electron density summation:       330
  | Number of centers in basis integrals           :       365
  | Number of centers in integrals                 :       143
  | Number of centers in hamiltonian               :       330
  | Consuming         43 KiB for k_phase.
  | Number of super-cells (origin) [n_cells]                     :         729
  | Number of super-cells (after PM_index) [n_cells]             :          78
  | Number of super-cells in hamiltonian [n_cells_in_hamiltonian]:          78
  | Size of matrix packed + index [n_hamiltonian_matrix_size] :      353096

------------------------------------------------------------
          Begin self-consistency loop: Initialization.

          Date     :  20250610, Time     :  144548.613
------------------------------------------------------------
  | Estimated reciprocal-space cutoff momentum G_max:         2.41181531 bohr^-1 .
  | Reciprocal lattice points for long-range Hartree potential:     250
  Partitioning the integration grid into batches with parallel hashing+maxmin method.
  | Number of batches:      583
  | Maximal batch size:     108
  | Minimal batch size:      50
  | Average batch size:      76.899
  | Standard deviation of batch sizes:      19.215

  Integration load balanced across     8 MPI tasks.
  Work distribution over tasks is as follows:
  Task     0 has       5582 integration points.
  Task     1 has       5611 integration points.
  Task     2 has       5588 integration points.
  Task     3 has       5619 integration points.
  Task     4 has       5605 integration points.
  Task     5 has       5622 integration points.
  Task     6 has       5614 integration points.
  Task     7 has       5591 integration points.
  Initializing partition tables, free-atom densities, potentials, etc. across the integration grid (initialize_grid_storage).
  | initialize_grid_storage: Actual outermost partition radius vs. multipole_radius_free
  | (-- VB: in principle, multipole_radius_free should be larger, hence this output)
  | Species        1: Confinement radius =              4.999999999999999 AA, multipole_radius_free =              5.000694715736543 AA.
  | Species        1: outer_partition_radius set to              5.000694715736543 AA .
  | The sparse table of interatomic distances needs        468.62 kbyte instead of      1065.80 kbyte of memory.
  | Net number of integration points:    44832
  | of which are non-zero points    :    38933
  | Numerical average free-atom electrostatic potential    :    -13.30139550 eV
  Renormalizing the initial density to the exact electron count on the 3D integration grid.
  | Initial density: Formal number of electrons (from input files) :     112.0000000000
  | Integrated number of electrons on 3D grid     :     112.0122048633
  | Charge integration error                      :       0.0122048633
  | Normalization factor for density and gradient :       0.9998910399
  Renormalizing the free-atom superposition density to the exact electron count on the 3D integration grid.
  | Formal number of electrons (from input files) :     112.0000000000
  | Integrated number of electrons on 3D grid     :     112.0122048633
  | Charge integration error                      :       0.0122048633
  | Normalization factor for density and gradient :       0.9998910399
  Obtaining max. number of non-zero basis functions in each batch (get_n_compute_maxes).
  | Maximal number of non-zero basis functions:      691 in task     0
  | Maximal number of non-zero basis functions:      718 in task     1
  | Maximal number of non-zero basis functions:      707 in task     2
  | Maximal number of non-zero basis functions:      704 in task     3
  | Maximal number of non-zero basis functions:      752 in task     4
  | Maximal number of non-zero basis functions:      712 in task     5
  | Maximal number of non-zero basis functions:      698 in task     6
  | Maximal number of non-zero basis functions:      692 in task     7
  Allocating        0.977 MB for KS_eigenvector_complex
  Integrating Hamiltonian matrix: batch-based integration.
  Time summed over all CPUs for integration: real work        1.403 s, elapsed        1.593 s
  Integrating overlap matrix.
  Time summed over all CPUs for integration: real work        0.961 s, elapsed        1.106 s
  Decreasing sparse matrix size:
  | Tolerance:  0.1000E-12
  Hamiltonian matrix
  | Array has   324671 nonzero elements out of   353096 elements
  | Sparsity factor is 0.081
  Overlap matrix
  | Array has   314495 nonzero elements out of   353096 elements
  | Sparsity factor is 0.109
  New size of hamiltonian matrix:      324676

  Updating Kohn-Sham eigenvalues and eigenvectors using ELSI and the (modified) LAPACK eigensolver.

  Obtaining occupation numbers and electronic chemical potential using ELSI.
  | Note that, for insulating systems, the printed 'chemical potential' value is not uniquely defined.
  | It can be anywhere in the energy gap, as long as it correctly separates occupied and unoccupied states.
  | In systems with a gap, the physically relevant chemical potential is the VBM or HOMO.

  | Chemical potential (Fermi level):    -5.89516509 eV
  Writing Kohn-Sham eigenvalues.
  K-point:       1 at    0.000000    0.000000    0.000000 (in units of recip. lattice)

  State    Occupation    Eigenvalue [Ha]    Eigenvalue [eV]
      1       2.00000         -65.516763        -1782.80183
      2       2.00000         -65.515756        -1782.77443
      3       2.00000         -65.514900        -1782.75115
      4       2.00000         -65.514700        -1782.74570
      5       2.00000         -65.514139        -1782.73043
      6       2.00000         -65.514100        -1782.72937
      7       2.00000         -65.513666        -1782.71755
      8       2.00000         -65.512412        -1782.68343
      9       2.00000          -5.118472         -139.28072
     10       2.00000          -5.117291         -139.24858
     11       2.00000          -5.116291         -139.22137
     12       2.00000          -5.116050         -139.21481
     13       2.00000          -5.115408         -139.19733
     14       2.00000          -5.115312         -139.19471
     15       2.00000          -5.114834         -139.18172
     16       2.00000          -5.113366         -139.14177
     17       2.00000          -3.533273          -96.14526
     18       2.00000          -3.532864          -96.13413
     19       2.00000          -3.532111          -96.11363
     20       2.00000          -3.531798          -96.10510
     21       2.00000          -3.531371          -96.09348
     22       2.00000          -3.531231          -96.08968
     23       2.00000          -3.530815          -96.07838
     24       2.00000          -3.530740          -96.07632
     25       2.00000          -3.530448          -96.06839
     26       2.00000          -3.530076          -96.05824
     27       2.00000          -3.530052          -96.05760
     28       2.00000          -3.529830          -96.05157
     29       2.00000          -3.529813          -96.05111
     30       2.00000          -3.529610          -96.04559
     31       2.00000          -3.529532          -96.04344
     32       2.00000          -3.529373          -96.03913
     33       2.00000          -3.529188          -96.03409
     34       2.00000          -3.529048          -96.03028
     35       2.00000          -3.528942          -96.02740
     36       2.00000          -3.528823          -96.02417
     37       2.00000          -3.528329          -96.01073
     38       2.00000          -3.527707          -95.99379
     39       2.00000          -3.527382          -95.98494
     40       2.00000          -3.527224          -95.98064
     41       2.00000          -0.673188          -18.31838
     42       2.00000          -0.536399          -14.59615
     43       2.00000          -0.530854          -14.44528
     44       2.00000          -0.525444          -14.29806
     45       2.00000          -0.516833          -14.06375
     46       2.00000          -0.512019          -13.93276
     47       2.00000          -0.505934          -13.76716
     48       2.00000          -0.344109           -9.36369
     49       2.00000          -0.338794           -9.21904
     50       2.00000          -0.336806           -9.16496
     51       2.00000          -0.333187           -9.06649
     52       2.00000          -0.332692           -9.05300
     53       2.00000          -0.330525           -8.99405
     54       2.00000          -0.246654           -6.71179
     55       2.00000          -0.235358           -6.40443
     56       2.00000          -0.220260           -5.99359
     57       0.00000          -0.207078           -5.63489
     58       0.00000          -0.200946           -5.46803
     59       0.00000          -0.199707           -5.43430
     60       0.00000          -0.196583           -5.34930
     61       0.00000          -0.193585           -5.26771
     62       0.00000          -0.190883           -5.19418
     63       0.00000          -0.135998           -3.70070
     64       0.00000          -0.130637           -3.55480
     65       0.00000          -0.125031           -3.40228
     66       0.00000          -0.111366           -3.03041
     67       0.00000           0.062656            1.70497
     68       0.00000           0.064188            1.74665
     69       0.00000           0.077333            2.10435
     70       0.00000           0.136090            3.70319
     71       0.00000           0.138400            3.76607
     72       0.00000           0.141275            3.84428
     73       0.00000           0.146389            3.98346
     74       0.00000           0.149540            4.06920
     75       0.00000           0.153375            4.17354
     76       0.00000           0.164573            4.47825
     77       0.00000           0.172485            4.69356
     78       0.00000           0.175805            4.78389
     79       0.00000           0.179842            4.89375
     80       0.00000           0.184365            5.01681

  What follows are estimated values for band gap, HOMO, LUMO, etc.
  | They are estimated on a discrete k-point grid and not necessarily exact.
  | For converged numbers, create a DOS and/or band structure plot on a denser k-grid.

  Highest occupied state (VBM) at     -5.99358608 eV (relative to internal zero)
  | Occupation number:      2.00000000
  | K-point:       1 at    0.000000    0.000000    0.000000 (in units of recip. lattice)

  Lowest unoccupied state (CBM) at    -5.63489166 eV (relative to internal zero)
  | Occupation number:      0.00000000
  | K-point:       1 at    0.000000    0.000000    0.000000 (in units of recip. lattice)

  ESTIMATED overall HOMO-LUMO gap:      0.35869442 eV between HOMO at k-point 1 and LUMO at k-point 1
  | This appears to be a direct band gap.
  The gap value is above 0.2 eV. Unless you are using a very sparse k-point grid,
  this system is most likely an insulator or a semiconductor.
  Calculating total energy contributions from superposition of free atom densities.

  Total energy components:
  | Sum of eigenvalues            :       -1312.91366729 Ha      -35726.19861595 eV
  | XC energy correction          :        -158.68496588 Ha       -4318.03762104 eV
  | XC potential correction       :         209.64835547 Ha        5704.82201048 eV
  | Free-atom electrostatic energy:       -1053.02331142 Ha      -28654.22221465 eV
  | Hartree energy correction     :          -0.00000000 Ha          -0.00000000 eV
  | Entropy correction            :          -0.00000000 Ha          -0.00000000 eV
  | ---------------------------
  | Total energy                  :       -2314.97358913 Ha      -62993.63644116 eV
  | Total energy, T -> 0          :       -2314.97358913 Ha      -62993.63644116 eV  <-- do not rely on this value for anything but (periodic) metals
  | Electronic free energy        :       -2314.97358913 Ha      -62993.63644116 eV

  Derived energy quantities:
  | Kinetic energy                :        2318.91841023 Ha       63100.98048491 eV
  | Electrostatic energy          :       -4475.20703348 Ha     -121776.57930503 eV
  | Energy correction for multipole
  | error in Hartree potential    :           0.00000000 Ha           0.00000000 eV
  | Sum of eigenvalues per atom                           :       -4465.77482699 eV
  | Total energy (T->0) per atom                          :       -7874.20455514 eV  <-- do not rely on this value for anything but (periodic) metals
  | Electronic free energy per atom                       :       -7874.20455514 eV
  Initialize hartree_potential_storage
  Max. number of atoms included in rho_multipole:            8

  End scf initialization - timings             :  max(cpu_time)    wall_clock(cpu1)
  | Time for scf. initialization                :        0.576 s           0.602 s
  | Boundary condition initialization           :        0.025 s           0.026 s
  | Integration                                 :        0.326 s           0.343 s
  | Solution of K.-S. eqns.                     :        0.102 s           0.103 s
  | Grid partitioning                           :        0.035 s           0.034 s
  | Preloading free-atom quantities on grid     :        0.086 s           0.088 s
  | Free-atom superposition energy              :        0.030 s           0.030 s
  | Total energy evaluation                     :        0.000 s           0.000 s

  Partial memory accounting:
  | Current value for overall tracked memory usage:
  |   Minimum:        7.214 MB (on task 0)
  |   Maximum:        7.458 MB (on task 1)
  |   Average:        7.336 MB
  | Peak value for overall tracked memory usage:
  |   Minimum:       13.107 MB (on task 0 after allocating wave)
  |   Maximum:       14.174 MB (on task 4 after allocating wave)
  |   Average:       13.472 MB
  | Largest tracked array allocation so far:
  |   Minimum:        3.643 MB (hamiltonian_shell on task 0)
  |   Maximum:        4.314 MB (hamiltonian_shell on task 4)
  |   Average:        3.840 MB
  Note:  These values currently only include a subset of arrays which are explicitly tracked.
  The "true" memory usage will be greater.
------------------------------------------------------------
  Time for density update prior                :  max(cpu_time)    wall_clock(cpu1)
  | self-consistency iterative process          :        0.193 s           0.198 s
------------------------------------------------------------
Convergence:    q app. |  density  | eigen (eV) | Etot (eV) | forces (eV/A) |       CPU time |     Clock time
  SCF    1 :  0.28E-13 |  0.23E+00 |   0.53E+01 |  0.11E+00 |             . |        0.524 s |        0.559 s
  SCF    2 :  0.18E-12 |  0.22E+00 |   0.83E+02 |  0.69E+00 |             . |        0.564 s |        0.577 s
  SCF    3 :  0.11E-12 |  0.34E-01 |  -0.28E+02 |  0.44E-01 |             . |        0.534 s |        0.541 s
  SCF    4 : -0.48E-13 |  0.24E-01 |   0.14E+01 |  0.44E-02 |             . |        0.539 s |        0.564 s
  SCF    5 :  0.89E-13 |  0.84E-02 |  -0.13E+01 |  0.45E-02 |             . |        0.540 s |        0.554 s
  SCF    6 :  0.11E-12 |  0.47E-02 |  -0.15E+01 |  0.99E-03 |             . |        0.522 s |        0.530 s
  SCF    7 :  0.31E-13 |  0.33E-02 |   0.25E+00 |  0.92E-03 |             . |        0.536 s |        0.557 s
  SCF    8 :  0.69E-13 |  0.23E-02 |  -0.17E+00 |  0.11E-03 |             . |        0.559 s |        0.577 s
  SCF    9 :  0.11E-14 |  0.19E-02 |  -0.48E+00 |  0.38E-03 |             . |        0.564 s |        0.580 s
  SCF   10 :  0.67E-13 |  0.67E-04 |   0.16E-01 | -0.24E-05 |             . |        0.547 s |        0.569 s
  SCF   11 : -0.83E-16 |  0.53E-04 |  -0.53E-02 |  0.60E-05 |             . |        0.563 s |        0.586 s
  SCF   12 :  0.11E-12 |  0.26E-04 |   0.78E-02 |  0.45E-05 |             . |        0.531 s |        0.544 s
  SCF   13 :  0.15E-12 |  0.86E-05 |   0.56E-03 |  0.16E-06 |             . |        0.543 s |        0.558 s
  SCF   14 : -0.95E-13 |  0.82E-05 |   0.19E-02 |  0.26E-05 |             . |        0.550 s |        0.568 s
  SCF   15 :  0.96E-14 |  0.10E-05 |   0.10E-04 |  0.64E-08 |             . |        0.568 s |        0.586 s
  SCF   16 :  0.13E-12 |  0.10E-05 |   0.81E-04 |  0.76E-07 |             . |        0.541 s |        0.556 s
  SCF   17 : -0.22E-13 |  0.38E-06 |   0.64E-05 | -0.35E-08 |             . |        0.536 s |        0.555 s
  SCF   18 : -0.20E-13 |  0.37E-06 |   0.75E-04 | -0.21E-07 |      0.14E+01 |        2.789 s |        2.821 s

  Total energy components:
  | Sum of eigenvalues            :       -1310.76313251 Ha      -35667.67958723 eV
  | XC energy correction          :        -158.85079710 Ha       -4322.55011789 eV
  | XC potential correction       :         209.86641300 Ha        5710.75565790 eV
  | Free-atom electrostatic energy:       -1053.02331142 Ha      -28654.22221465 eV
  | Hartree energy correction     :          -2.17163589 Ha         -59.09321925 eV
  | Entropy correction            :          -0.00001361 Ha          -0.00037042 eV
  | ---------------------------
  | Total energy                  :       -2314.94246392 Ha      -62992.78948111 eV
  | Total energy, T -> 0          :       -2314.94247753 Ha      -62992.78985154 eV  <-- do not rely on this value for anything but (periodic) metals
  | Electronic free energy        :       -2314.94249115 Ha      -62992.79022196 eV

  Derived energy quantities:
  | Kinetic energy                :        2318.67043194 Ha       63094.23265221 eV
  | Electrostatic energy          :       -4474.76209876 Ha     -121764.47201544 eV
  | Energy correction for multipole
  | error in Hartree potential    :           0.05816284 Ha           1.58269150 eV
  | Sum of eigenvalues per atom                           :       -4458.45994840 eV
  | Total energy (T->0) per atom                          :       -7874.09873144 eV  <-- do not rely on this value for anything but (periodic) metals
  | Electronic free energy per atom                       :       -7874.09877775 eV
  What follows are estimated values for band gap, HOMO, LUMO, etc.
  | They are estimated on a discrete k-point grid and not necessarily exact.
  | For converged numbers, create a DOS and/or band structure plot on a denser k-grid.

  Highest occupied state (VBM) at     -5.52194248 eV (relative to internal zero)
  | Occupation number:      1.44983318
  | K-point:       1 at    0.000000    0.000000    0.000000 (in units of recip. lattice)

  Lowest unoccupied state (CBM) at    -5.47958955 eV (relative to internal zero)
  | Occupation number:      0.54823193
  | K-point:       1 at    0.000000    0.000000    0.000000 (in units of recip. lattice)

  ESTIMATED overall HOMO-LUMO gap:      0.04235293 eV between HOMO at k-point 1 and LUMO at k-point 1
  | This appears to be a direct band gap.
  However, this system has fractional occupation numbers. Since we use a finite k-point grid,
  this material is metallic within the approximate finite broadening function (occupation_type)
  applied to determine the occupation numbers.

  | Chemical Potential                          :    -5.50081731 eV
  | Note that, for insulating systems, the printed 'chemical potential' value is not uniquely defined.
  | It can be anywhere in the energy gap, as long as it correctly separates occupied and unoccupied states.
  | In systems with a gap, the physically relevant chemical potential is the VBM or HOMO.

  Self-consistency cycle converged.

  Removing unitary transformations (pure translations, rotations) from forces on atoms.
  Atomic forces before filtering:
  | Net force on center of mass :  -0.396371E-02  0.488519E-02 -0.378038E-02 eV/A
  Atomic forces after filtering:
  | Net force on center of mass :   0.892031E-16 -0.713624E-15  0.535218E-15 eV/A

  Energy and forces in a compact form:
  | Total energy uncorrected      :         -0.629927894811130E+05 eV
  | Total energy corrected        :         -0.629927898515380E+05 eV  <-- do not rely on this value for anything but (periodic) metals
  | Electronic free energy        :         -0.629927902219630E+05 eV
  Total atomic forces (unitary forces cleaned) [eV/Ang]:
  |    1         -0.552389650485205E-01         -0.420152182460520E+00          0.199624048388867E+00
  |    2          0.159295660488100E+01          0.246416846023414E+00         -0.779186026036950E+00
  |    3          0.694889978556772E+00          0.121771803131969E+01          0.509960730810342E+00
  |    4          0.100886737050042E+01         -0.179812017676789E-01          0.600708196816406E+00
  |    5         -0.984286271511275E+00          0.757720806766642E+00          0.273335178012783E+00
  |    6         -0.157954956625710E+01         -0.101566957976521E+00         -0.150165783060050E+00
  |    7         -0.964914295106100E+00         -0.125316563426247E+01          0.513056862422390E+00
  |    8          0.287275143984809E+00         -0.428989707642555E+00         -0.116733320735379E+01

  Removing unitary transformations (pure translations, rotations) from forces on atoms.
  Atomic forces before filtering:
  | Net force on center of mass :   0.892031E-16 -0.713624E-15  0.535218E-15 eV/A
  Atomic forces after filtering:
  | Net force on center of mass :   0.446015E-16  0.000000E+00 -0.178406E-15 eV/A
  @ DRIVER - WARNING: the stress tensor will not be computed
 ------------------------------------------------------------------------
 Atomic structure that was used in the preceding time step of the wrapper
                         x [A]             y [A]             z [A]
  lattice_vector         5.40883258        0.00000000        0.00000000
  lattice_vector         0.00000000        5.40883257        0.00000000
  lattice_vector         0.00000000        0.00000000        5.40883257

            atom        -0.01843345        0.06119748       -0.05840381  Si
            atom        -0.03178302        2.73697304        2.73983355  Si
            atom         2.67896059       -0.09754470        2.68593605  Si
            atom         2.65758303        2.67275473        0.01614589  Si
            atom         1.38634380        1.26426918        1.35587308  Si
            atom         1.43799720        4.05931216        4.11072103  Si
            atom         4.05558550        1.44880469        3.99129010  Si
            atom         4.06024409        4.08073113        1.38510182  Si
 ------------------------------------------------------------------------
  @ DRIVER MODE: Message from server: STATUS      
  @ DRIVER MODE: Message from server: GETFORCE    
  @ DRIVER MODE: Returning v,forces,stress 

------------------------------------------------------------------------------
  Final output of selected total energy values:

  The following output summarizes some interesting total energy values
  at the end of a run (AFTER all relaxation, molecular dynamics, etc.).

  | Total energy of the DFT / Hartree-Fock s.c.f. calculation      :         -62992.789481113 eV
  | Final zero-broadening corrected energy (caution - metals only) :         -62992.789851538 eV
  | For reference only, the value of 1 Hartree used in FHI-aims is :             27.211384500 eV
  | For reference only, the overall average (free atom contribution
  | + realspace contribution) of the electrostatic potential after
  | s.c.f. convergence is                                          :            -12.998853237 eV

  Before relying on these values, please be sure to understand exactly which
  total energy value is referred to by a given number. Different objects may
  all carry the same name 'total energy'. Definitions:

  Total energy of the DFT / Hartree-Fock s.c.f. calculation:
  | Note that this energy does not include ANY quantities calculated after the
  | s.c.f. cycle, in particular not ANY RPA, MP2, etc. many-body perturbation terms.

  Final zero-broadening corrected energy:
  | For metallic systems only, a broadening of the occupation numbers at the Fermi
  | level can be extrapolated back to zero broadening by an electron-gas inspired
  | formula. For all systems that are not real metals, this value can be
  | meaningless and should be avoided.

------------------------------------------------------------------------------
  Methods described in the following list of references were used in this FHI-aims run.
  If you publish the results, please make sure to cite these reference if they apply.
  FHI-aims is an academic code, and for our developers (often, Ph.D. students
  and postdocs), scientific credit in the community is essential.
  Thank you for helping us!

  For any use of FHI-aims, please cite:

    Volker Blum, Ralf Gehrke, Felix Hanke, Paula Havu, Ville Havu,
    Xinguo Ren, Karsten Reuter, and Matthias Scheffler
    'Ab initio molecular simulations with numeric atom-centered orbitals'
    Computer Physics Communications 180, 2175-2196 (2009)
    http://doi.org/10.1016/j.cpc.2009.06.022


  The provided symmetry information was generated with SPGlib:

    Atsushi Togo, Yusuke Seto, Dimitar Pashov
    SPGlib 1.7.3 obtained from http://spglib.sourceforge.net
    Licence: New BSD license
    Copyright (C) 2008 Atsushi Togo


  The ELSI infrastructure was used in your run to solve the Kohn-Sham electronic structure.
  Please check out http://elsi-interchange.org to learn more.
  If scalability is important for your project, please acknowledge ELSI by citing:

    V. W-z. Yu, F. Corsetti, A. Garcia, W. P. Huhn, M. Jacquelin, W. Jia,
    B. Lange, L. Lin, J. Lu, W. Mi, A. Seifitokaldani, A. Vazquez-Mayagoitia,
    C. Yang, H. Yang, and V. Blum
    'ELSI: A unified software interface for Kohn-Sham electronic structure solvers'
    Computer Physics Communications 222, 267-285 (2018).
    http://doi.org/10.1016/j.cpc.2017.09.007


  For the real-space grid partitioning and parallelization used in this calculation, please cite:

    Ville Havu, Volker Blum, Paula Havu, and Matthias Scheffler,
    'Efficient O(N) integration for all-electron electronic structure calculation'
    'using numerically tabulated basis functions'
    Journal of Computational Physics 228, 8367-8379 (2009).
    http://doi.org/10.1016/j.jcp.2009.08.008

  Of course, there are many other important community references, e.g., those cited in the
  above references. Our list is limited to references that describe implementations in the
  FHI-aims code. The reason is purely practical (length of this list) - please credit others as well.

------------------------------------------------------------
          Leaving FHI-aims.
          Date     :  20250610, Time     :  144601.918

          Computational steps:
          | Number of self-consistency cycles          :           18
          | Number of SCF (re)initializations          :            1

          Detailed time accounting                     :  max(cpu_time)    wall_clock(cpu1)
          | Total time                                  :       12.934 s          13.510 s
          | Preparation time                            :        0.086 s           0.091 s
          | Boundary condition initalization            :        0.025 s           0.026 s
          | Grid partitioning                           :        0.035 s           0.034 s
          | Preloading free-atom quantities on grid     :        0.086 s           0.088 s
          | Free-atom superposition energy              :        0.030 s           0.030 s
          | Total time for integrations                 :        3.838 s           3.967 s
          | Total time for solution of K.-S. equations  :        1.474 s           1.485 s
          | Total time for density & force components   :        5.186 s           5.227 s
          | Total time for mixing                       :        0.010 s           0.012 s
          | Total time for Hartree multipole update     :        0.027 s           0.026 s
          | Total time for Hartree multipole sum        :        1.704 s           1.733 s
          | Total time for total energy evaluation      :        0.001 s           0.005 s
          | Total time NSC force correction             :        0.530 s           0.568 s
          | Total time for scaled ZORA corrections      :        0.000 s           0.000 s

          Partial memory accounting:
          | Residual value for overall tracked memory usage across tasks:     0.000000 MB (should be 0.000000 MB)
          | Peak values for overall tracked memory usage:
          |   Minimum:       19.640 MB (on task 0 after allocating d_wave)
          |   Maximum:       21.263 MB (on task 4 after allocating d_wave)
          |   Average:       20.173 MB
          | Largest tracked array allocation:
          |   Minimum:        3.643 MB (hamiltonian_shell on task 0)
          |   Maximum:        4.314 MB (hamiltonian_shell on task 4)
          |   Average:        3.840 MB
          Note:  These values currently only include a subset of arrays which are explicitly tracked.
          The "true" memory usage will be greater.

          Have a nice day.
------------------------------------------------------------
