#     DFTpy    
  CRYSTAL 
    
  PRIMVEC    
  20.2080089581052    0.0    0.0    
  0.0    20.8591327648086    0.0    
  0.0    0.0    18.9388328781969    
  PRIMCOORD    
  8    1    
  Mg    10.1040044790526    10.4295663824043    8.000000000000009    
  Mg    10.1040044790526    10.4295663824043    10.938832878196893    
  Mg    10.1040044790526    8.000000000000005    9.46941643909845    
  Mg    12.208008958105179    9.214783191202152    9.46941643909845    
  Mg    12.208008958105179    11.644349573606448    9.46941643909845    
  Mg    10.1040044790526    12.859132764808594    9.46941643909845    
  Mg    8.000000000000023    11.644349573606448    9.46941643909845    
  Mg    8.000000000000023    9.214783191202152    9.46941643909845    
  BEGIN_BLOCK_DATAGRID_3D    
  3d_datagrid_density    
  BEGIN_DATAGRID_3D#0    
  37    37    33    
  0.0    0.0    0.0    
  20.2080089581052    0.0    0.0    
  0.0    20.8591327648086    0.0    
  0.0    0.0    18.9388328781969    
  6.767354421680441e-15    4.048465584431284e-15    1.4122272157922568e-14    2.154030989054633e-14    6.78583565818212e-14    
  1.2648262175926305e-13    2.9192137836001776e-13    4.952992290693658e-13    9.052090284602463e-13    1.3704913439012867e-12    
  2.1414427093871887e-12    2.9371154506579835e-12    4.0718265730576415e-12    5.169207447240311e-12    6.7044959629654535e-12    
  7.596072150563595e-12    8.356867367223437e-12    8.996266290424205e-12    9.657905139496557e-12    8.997482508227832e-12    
  8.359587800662139e-12    7.600955429771192e-12    6.712590963853951e-12    5.1810173406023414e-12    4.0878741016322806e-12    
  2.956245045541257e-12    2.162206242604236e-12    1.3896291761552918e-12    9.21152216921886e-13    5.056473372039337e-13    
  2.974102573986945e-13    1.282930235940816e-13    6.848794334281612e-14    2.2023878867174964e-14    1.4709648118292042e-14    
  4.285280858022553e-15    6.767354421680441e-15    4.886712974190954e-15    1.0959809709017188e-14    1.1850512162758616e-14    
  3.810726726578156e-14    6.876990259321458e-14    1.7723705620287996e-13    3.1704489039020806e-13    6.307382002485243e-13    
  1.0059618756024231e-12    1.6739772474826587e-12    2.4103625518096697e-12    3.5251190183693696e-12    4.628517346225047e-12    
  6.007394828349048e-12    6.974211126023573e-12    8.429006053030207e-12    9.587155287217302e-12    1.0194130688725602e-11    
  9.949343292121706e-12    1.0195449182784251e-11    9.590101186959496e-12    8.434201205628452e-12    6.982577998272005e-12    
  6.02037296287056e-12    4.646128178900105e-12    3.546612240301034e-12    2.4328394577117314e-12    1.6954461147655354e-12    
  1.023469602411903e-12    6.442630740899724e-13    3.2600830875508293e-13    1.836084716506956e-13    7.272957023110672e-14    
  4.1108829336422415e-14    1.3341746815106738e-14    1.1825900552852119e-14    4.886712974190954e-15    2.0802947802420367e-14    
  1.640982854011805e-14    3.810943138408036e-14    5.916837095997582e-14    1.4841772864239664e-13    2.665517597753505e-13    
  5.548427421065499e-13    9.237334056469757e-13    1.6158992945199909e-12    2.442348524537066e-12    3.751717737016261e-12    
  5.179852962379652e-12    7.140497469417028e-12    9.119520361537556e-12    1.1713141767076493e-11    1.341623507960864e-11    
  1.4845860792468127e-11    1.5993321158391053e-11    1.698698938025012e-11    1.5994890215291364e-11    1.4849307184992775e-11    
  1.342234425756223e-11    1.1723131521375078e-11    9.134282420280395e-12    7.160660267571571e-12    5.203865251788441e-12    
  3.777346562113306e-12    2.4658992780733587e-12    1.6361476565784908e-12    9.39386013792466e-13    5.675166077585892e-13    
  2.7620009041302475e-13    1.5637013447576255e-13    6.431476959864142e-14    4.168731420419953e-14    1.7784789498432578e-14    
  2.0802947802420367e-14    4.085736381781668e-14    6.011533086100992e-14    7.510915186593297e-14    1.6119669581428366e-13    
  2.7472403891987024e-13    5.681760435249099e-13    9.68066969170338e-13    1.751365030516616e-12    2.7642314206126533e-12    
  4.433484338665132e-12    6.430644078089778e-12    9.284423088810125e-12    1.2354161707962486e-11    1.6044390904899674e-11    
  1.9114659749076316e-11    2.2949371655816608e-11    2.6086336507059023e-11    2.7850330991343335e-11    2.7683221303045427e-11    
  2.785216542350779e-11    2.6090386873715565e-11    2.295621085699427e-11    1.9125398737873633e-11    1.6060592045980372e-11    
  1.2376085568826565e-11    9.310907250149957e-12    6.458246238925426e-12    4.459399111351203e-12    2.78575849671863e-12    
  1.7689438278857728e-12    9.819873716282305e-13    5.803061986243911e-13    2.8437951959410724e-13    1.6903674767016174e-13    
  7.982474647427215e-14    6.263929134933122e-14    4.085736381781668e-14    1.2453587047264498e-13    1.2222877231404552e-13    
  2.0623619701467724e-13    3.1684896326983567e-13    6.233396044769202e-13    1.0625434639435647e-12    1.958425635387733e-12    
  3.2034229322210276e-12    5.337203455812782e-12    8.109736901566691e-12    1.22446146594562e-11    1.713771538830322e-11    
  2.352285611868007e-11    3.037474302082318e-11    3.85715299239126e-11    4.493169692732741e-11    5.018245549080743e-11    
  5.415667131830563e-11    5.669325523777196e-11    5.415883036752967e-11    5.018698197083877e-11    4.493929416155983e-11    
  3.858317395527723e-11    3.039142082983382e-11    2.3545117904166106e-11    1.716415680195291e-11    1.2272528251501789e-11    
  8.135396055464293e-12    5.3589423954080385e-12    3.22053115958952e-12    1.9725242642059306e-12    1.074303709083145e-12    
  6.338203228826646e-13    3.2492518682605233e-13    2.1209882749460828e-13    1.2494827544815663e-13    1.2453587047264498e-13    
  2.3791058067870777e-13    3.007918144694022e-13    3.9315404599162115e-13    7.006894865621786e-13    1.1610494861324837e-12    
  2.145275323871221e-12    3.6014584342099467e-12    6.203547895828883e-12    9.837790006010655e-12    1.550932739568738e-11    
  2.279050336242424e-11    3.279078460571161e-11    4.428933744068287e-11    5.778218072792911e-11    7.039430734117677e-11    
  8.431309150999556e-11    9.601825637679425e-11    1.029570326045218e-10    1.0375835245354313e-10    1.0295929823136005e-10    
  9.602301553149008e-11    8.432067491826991e-11    7.040542389222249e-11    5.7797717055155134e-11    4.4309528658489113e-11    
  3.28145498220955e-11    2.281521605150369e-11    1.5532279677637694e-11    9.856866274502052e-12    6.218858340721162e-12    
  3.613669482080478e-12    2.1559100709946653e-12    1.1701284087616389e-12    7.08356481088671e-13    3.98295755986488e-13    
  3.0351244478383746e-13    2.3791058067870777e-13    5.096791082771331e-13    5.36896502024635e-13    8.124992337982361e-13    
  1.251256214257404e-12    2.2585879199441897e-12    3.833457565815507e-12    6.780904969062064e-12    1.1169758169844526e-11    
  1.8352704108922445e-11    2.825908236102339e-11    4.260873057242382e-11    6.052578643680437e-11    8.336712794276498e-11    
  1.088723566443601e-10    1.3783516173809758e-10    1.626115515535116e-10    1.8327956406832129e-10    1.9853113818749699e-10    
  2.062733548874732e-10    1.9853333200454939e-10    1.832840538019527e-10    1.6261870328949417e-10    1.3784520779350252e-10    
  1.0888565349742518e-10    8.338356272286902e-11    6.054455026650903e-11    4.2628007728010296e-11    2.8276761012049585e-11    
  1.836756794039123e-11    1.1181585169864785e-11    6.790641773686011e-12    3.841724051278145e-12    2.2659216155095297e-12    
  1.2570837024961365e-12    8.166645495612605e-13    5.389139035247773e-13    5.096791082771331e-13    8.513827200663929e-13    
  1.0210191741988862e-12    1.3689656595726293e-12    2.3063305932738155e-12    3.8535712598969325e-12    6.9084867872641755e-12    
  1.1728741441582647e-11    2.0016843713477573e-11    3.221086243854473e-11    5.0843783084320725e-11    7.587247605516097e-11    
  1.0975952851075216e-10    1.503186428077557e-10    1.9774541902966879e-10    2.4460055787818373e-10    2.937547249516079e-10    
  3.3532732499235674e-10    3.618762567533426e-10    3.677322289954781e-10    3.6187799546765685e-10    3.353310426851404e-10    
  2.937604698262273e-10    2.446085463967279e-10    1.9775549814659649e-10    1.5033067525317496e-10    1.0977261776102745e-10    
  7.588562642434751e-11    5.0855738304815605e-11    3.2220957487326766e-11    2.0025130372480077e-11    1.1735631685968736e-11    
  6.914524731150894e-12    3.858690805502946e-12    2.3104812776064356e-12    1.371709239945857e-12    1.0224283982649703e-12    
  8.513827200663929e-13    1.4914171957060767e-12    1.6203407257248362e-12    2.3747327236043895e-12    3.7260689442180256e-12    
  6.599799293377572e-12    1.137996647710069e-11    2.0044300035935857e-11    3.355901958147103e-11    5.536495027640883e-11    
  8.663082106283339e-11    1.3169234988006738e-10    1.8996557443739587e-10    2.632141109039015e-10    3.475371840817209e-10    
  4.429080826768646e-10    5.261446620003956e-10    5.955464368882627e-10    6.474573879911338e-10    6.703546113797385e-10    
  6.47458552350812e-10    5.955488511289382e-10    5.261486732216514e-10    4.4291344535359745e-10    3.4754394094440673e-10    
  2.6322165097814744e-10    1.8997365127991718e-10    1.3170014951038525e-10    8.6638018878182e-11    5.537119802717322e-11    
  3.356443765095441e-11    2.0049068770233373e-11    1.1384130886758159e-11    6.603349321798826e-12    3.728736794227357e-12    
  2.376522232377283e-12    1.6211923673553012e-12    1.4914171957060767e-12    2.2466174236486834e-12    2.6432132957818222e-12    
  3.624166603202188e-12    6.047482082505349e-12    1.030403003467577e-11    1.8480030270563306e-11    3.193755112090145e-11    
  5.486746687085858e-11    8.975327203022786e-11    1.4302173432993802e-10    2.1692052725751798e-10    3.1726016419556893e-10    
  4.40082468313477e-10    5.820788276810988e-10    7.303950385703989e-10    8.826964692766947e-10    1.0124801372862398e-09    
  1.0903825023798128e-09    1.1096659030686913e-09    1.0903829414416629e-09    1.012481257085029e-09    8.826981955915678e-10    
  7.303976655619189e-10    5.820819324534107e-10    4.4008619421913383e-10    3.172639036528933e-10    2.169244161311994e-10    
  1.4302543653970572e-10    8.97569835408072e-11    5.487106346694895e-11    3.1941012307695986e-11    1.8483171239486383e-11    
  1.0306595833025154e-11    6.049395608911382e-12    3.625339082638728e-12    2.643796978127677e-12    2.2466174236486834e-12    
  3.4550304583015377e-12    3.822534258336269e-12    5.570509786047133e-12    8.932522079380407e-12    1.587438355703886e-11    
  2.7910146932016928e-11    4.955802044759608e-11    8.443126017782318e-11    1.4070466673927453e-10    2.2333573707433553e-10    
  3.4283071203818983e-10    5.009613618543268e-10    7.03914725959079e-10    9.416045019223575e-10    1.2029798654146907e-09    
  1.4445831761495432e-09    1.6511305847785562e-09    1.801026743552419e-09    1.865514551567764e-09    1.8010266877597305e-09    
  1.651130400917108e-09    1.4445832170157072e-09    1.2029798157010559e-09    9.416047822806438e-10    7.039149292107279e-10    
  5.009619858177762e-10    3.4283151393031704e-10    2.2333723104037555e-10    1.407066840910316e-10    8.443387311054847e-11    
  4.9560848585199063e-11    2.7912830597801954e-11    1.5876619412581745e-11    8.93409852675814e-12    5.571499103721459e-12    
  3.822988200453317e-12    3.4550304583015377e-12    4.76707859692228e-12    5.570686080990799e-12    7.785266806045783e-12    
  1.3053835299628657e-11    2.2685825548205102e-11    4.106254362188577e-11    7.220919185873225e-11    1.2548615821804542e-10    
  2.0863686249527682e-10    3.3529860878931843e-10    5.147105484058401e-10    7.622541791611542e-10    1.070127712810884e-09    
  1.4306358441923997e-09    1.8152667713051952e-09    2.203978803145282e-09    2.5579865023116285e-09    2.790612259406684e-09    
  2.8591927148879544e-09    2.7906119035967798e-09    2.5579859315478965e-09    2.203977631687066e-09    1.8152653739750348e-09    
  1.430633835560439e-09    1.0701258388835061e-09    7.622522912234368e-10    5.147095517633836e-10    3.352984425026786e-10    
  2.086379705502457e-10    1.2548813868939377e-10    7.221175281963144e-11    4.106510930582651e-11    2.2687975411532616e-11    
  1.3055405377752341e-11    7.786198184534867e-12    5.571140428027369e-12    4.76707859692228e-12    6.604184862233751e-12    
  7.384771795911073e-12    1.080423855159453e-11    1.76375220736761e-11    3.165227018661208e-11    5.658526310132881e-11    
  1.015964637753814e-10    1.758434135280166e-10    2.9691181107612073e-10    4.765221585849769e-10    7.415308670701515e-10    
  1.0966905847187165e-09    1.552649219853074e-09    2.0974283715708344e-09    2.731271831707427e-09    3.309152163206385e-09    
  3.85694099732571e-09    4.756062761202825e-09    5.39909336144001e-09    4.756062687861227e-09    3.856940490479199e-09    
  3.3091512604185837e-09    2.7312698742330743e-09    2.09742594910228e-09    1.5526460629307084e-09    1.096687838429451e-09    
  7.415286172366964e-10    4.765213570645918e-10    2.9691224474303927e-10    1.7584513601022837e-10    1.0159882773527858e-10    
  5.658776567364028e-11    3.165443539156243e-11    1.7639077230408837e-11    1.0805209659061329e-11    7.38521443931483e-12    
  6.604184862233751e-12    8.460771516917655e-12    9.627503031060942e-12    1.3957891115696426e-11    2.315994300415655e-11    
  4.1506410159827046e-11    7.500490877161525e-11    1.3504218808198133e-10    2.353687153554353e-10    3.9981559049037115e-10    
  6.462553925191502e-10    1.010124118796626e-09    1.4975878989358426e-09    2.1450898968507667e-09    2.897757797398043e-09    
  3.7134410512870904e-09    4.49105934506e-09    6.039150327434304e-09    8.830283272621527e-09    8.103904305291126e-09    
  8.8302837885921e-09    6.039150982551714e-09    4.491059293199038e-09    3.713440365087655e-09    2.897755716962731e-09    
  2.1450873555856587e-09    1.4975848903628576e-09    1.0101219799796207e-09    6.462541954624643e-10    3.9981596689482763e-10    
  2.3537016492203683e-10    1.350444407120108e-10    7.500727797697738e-11    4.1508485354018515e-11    2.3161470262801558e-11    
  1.395881607907041e-11    9.62794998869182e-12    8.460771516917655e-12    1.0702844952322235e-11    1.1605664759206204e-11    
  1.7656558815802556e-11    2.8405306367811265e-11    5.262009631386759e-11    9.356819627337705e-11    1.7217368632509688e-10    
  2.982022151824207e-10    5.119035985355338e-10    8.278197590323317e-10    1.30540168628409e-09    1.940992622530657e-09    
  2.8529907027538045e-09    4.114936821303958e-09    6.122187402100376e-09    7.050807650518904e-09    8.751839394842006e-09    
  1.2227177126467575e-08    8.68103366527635e-09    1.2227178729746215e-08    8.751841459314783e-09    7.050809774381454e-09    
  6.122188271485731e-09    4.11493667280845e-09    2.8529890496312356e-09    1.9409907766320577e-09    1.3053997584962014e-09    
  8.278189789012012e-10    5.119038095008181e-10    2.982036193144448e-10    1.7217568158167103e-10    9.357035268223347e-11    
  5.262199626799758e-11    2.8406670209645726e-11    1.7657429621365642e-11    1.1606055825233213e-11    1.0702844952322235e-11    
  1.2371151480283009e-11    1.3920326762316747e-11    2.058509013143677e-11    3.4095977001373515e-11    6.224320718367762e-11    
  1.1270502423752176e-10    2.0653677526359707e-10    3.6132799430247674e-10    6.200674278304141e-10    1.0070178263459918e-09    
  1.602187091822532e-09    2.3895157185889744e-09    3.711678090231242e-09    6.591470665399501e-09    9.02667502961382e-09    
  1.2055242306858842e-08    1.1726830406453503e-08    1.4041696985718638e-08    1.5786316144460968e-08    1.4041699348930413e-08    
  1.172683436611099e-08    1.2055246746072576e-08    9.026678825607161e-09    6.591472350638299e-09    3.7116784593490237e-09    
  2.3895147468097875e-09    1.6021862053561577e-09    1.0070171466452276e-09    6.200678108890212e-10    3.61329078178904e-10    
  2.0653850677584444e-10    1.1270682966445105e-10    6.224480718654713e-11    3.409715451511094e-11    2.0585801500044467e-11    
  1.3920666974885129e-11    1.2371151480283009e-11    1.4090272000600735e-11    1.5458717701366125e-11    2.3454040868134105e-11    
  3.82323742995337e-11    7.105154671241188e-11    1.2754147178311547e-10    2.36327422054417e-10    4.1216688864187866e-10    
  7.143335320564657e-10    1.1542935706212423e-09    1.862323662923477e-09    2.759442361923428e-09    4.4847641603466805e-09    
  8.484420644271105e-09    7.986545657289341e-09    1.251637805943556e-08    1.4340556818569254e-08    1.2744291965636606e-08    
  1.5137061964635688e-08    1.2744294707306913e-08    1.4340561815599525e-08    1.2516384220874528e-08    7.986550331751906e-09    
  8.484424958169357e-09    4.484765767151636e-09    2.759442915007834e-09    1.8623232200389109e-09    1.1542934232157838e-09    
  7.143336494496201e-10    4.121677524786688e-10    2.3632864141287426e-10    1.2754285403409867e-10    7.105278011358183e-11    
  3.823327101210337e-11    2.3454609268277713e-11    1.5458963674025266e-11    1.4090272000600735e-11    1.481896769777543e-11    
  1.6902915749885958e-11    2.481602879791666e-11    4.1682657959832576e-11    7.5894906800498e-11    1.3888870662384945e-10    
  2.540020278294636e-10    4.4944077481255554e-10    7.72707684950291e-10    1.2640461321588501e-09    2.0172156538083785e-09    
  3.0363455245571887e-09    4.623117025149423e-09    8.420743129502347e-09    1.289995227416997e-08    1.501946718854784e-08    
  1.4356798667492643e-08    1.8896625266796955e-08    2.222090626157488e-08    1.8896628554532467e-08    1.435680416135274e-08    
  1.5019474195425816e-08    1.2899959556556603e-08    8.420748137096407e-09    4.623120123391223e-09    3.0363467044482493e-09    
  2.01721615984995e-09    1.2640459760726586e-09    7.727078513548289e-10    4.4944113002838074e-10    2.5400280626839863e-10    
  1.388895708628479e-10    7.589572752825084e-11    4.168328900485686e-11    2.4816401962887784e-11    1.6903096756623097e-11    
  1.481896769777543e-11    1.537958703650602e-11    1.7083676115745574e-11    2.568774133593262e-11    4.238417398627457e-11    
  7.82781509219156e-11    1.419739306960929e-10    2.614081078991917e-10    4.6059828904574234e-10    7.952435562865437e-10    
  1.3008209736269943e-09    2.0743275730144744e-09    3.1278845521414146e-09    4.570666566998061e-09    6.748992556715796e-09    
  1.0476367469317709e-08    1.1927516687064079e-08    1.4364863605891937e-08    2.24265803755812e-08    2.232033614557177e-08    
  2.2426583867718407e-08    1.4364868662426637e-08    1.1927523157767408e-08    1.0476373903686351e-08    6.748997957312836e-09    
  4.570670026595744e-09    3.1278868626508075e-09    2.0743283897928594e-09    1.3008213633863617e-09    7.952435125567433e-10    
  4.6059848515612627e-10    2.614084013054059e-10    1.4197439546331946e-10    7.827860507620652e-11    4.2384531999878914e-11    
  2.5687979284964885e-11    1.7083775273509666e-11    1.537958703650602e-11    1.481920466794145e-11    1.6903233242473957e-11    
  2.4816445164393533e-11    4.168322567173555e-11    7.589559891162865e-11    1.3888949358491007e-10    2.5400275199906765e-10    
  4.4944128760627037e-10    7.72707737205334e-10    1.2640456037881251e-09    2.017214421801812e-09    3.036343713124581e-09    
  4.623114670471924e-09    8.420740134769023e-09    1.289994876045503e-08    1.501946372486478e-08    1.4356795274283939e-08    
  1.889662130009444e-08    2.2220901626121748e-08    1.889662414936605e-08    1.4356800183017143e-08    1.5019470365954822e-08    
  1.2899956331007425e-08    8.42074619119198e-09    4.623119179337665e-09    3.036346444575867e-09    2.0172162353776543e-09    
  1.2640462483978389e-09    7.727080936936447e-10    4.49441333368915e-10    2.5400291883526614e-10    1.3888966897920812e-10    
  7.589581594548062e-11    4.168341700654857e-11    2.4816552781159257e-11    1.6903294275868853e-11    1.481920466794145e-11    
  1.4090744644443272e-11    1.545929622752753e-11    2.3454851363168083e-11    3.823339815637923e-11    7.105286338850039e-11    
  1.2754287129521933e-10    2.363287632518893e-10    4.1216769995886113e-10    7.14333521636788e-10    1.154292305133276e-09    
  1.862321084056624e-09    2.7594385160707934e-09    4.484759135063064e-09    8.484413945134476e-09    7.986539702248154e-09    
  1.2516371039910924e-08    1.4340549755606794e-08    1.274428518769641e-08    1.513705442112413e-08    1.2744287443812426e-08    
  1.4340554212037385e-08    1.2516377295797693e-08    7.986545561824036e-09    8.48442104620523e-09    4.4847640637190065e-09    
  2.7594423535931076e-09    1.862323471413283e-09    1.1542938986235452e-09    7.14334208767732e-10    4.121681323475956e-10    
  2.3632894149195634e-10    1.27543045923636e-10    7.105300619436011e-11    3.82335121860285e-11    2.3454927845198304e-11    
  1.54593225937424e-11    1.4090744644443272e-11    1.2371777186741057e-11    1.3921148945876605e-11    2.058614812221337e-11    
  3.40973805503316e-11    6.224488467920206e-11    1.1270688135458355e-10    2.0653837296257383e-10    3.6132893059621196e-10    
  6.200670072815312e-10    1.0070157152404256e-09    1.602182891782523e-09    2.3895097518675644e-09    3.711670272445216e-09    
  6.591460787886579e-09    9.026664272038449e-09    1.2055231052975883e-08    1.1726819935542973e-08    1.4041686063293281e-08    
  1.57863043912922e-08    1.4041688375850943e-08    1.1726824204995522e-08    1.205523720730392e-08    9.026671411685686e-09    
  6.5914676131707166e-09    3.711676106891696e-09    2.3895141577800915e-09    1.6021864692776195e-09    1.0070179515496741e-09    
  6.200685662026927e-10    3.613297585537953e-10    2.0653895583525153e-10    1.1270722185658342e-10    6.224514297201922e-11    
  3.4097560280972637e-11    2.0586235658757652e-11    1.3921195881985246e-11    1.2371777186741057e-11    1.0703620563656933e-11    
  1.1606582656740749e-11    1.7657817024464135e-11    2.8406833100237956e-11    5.262201378841986e-11    9.35701223570272e-11    
  1.7217538026254417e-10    2.9820286960737157e-10    5.119027210941358e-10    8.278165582116637e-10    1.3053960430685847e-09    
  1.9409844868619497e-09    2.852980606060582e-09    4.114925051397353e-09    6.122174343206528e-09    7.050794866861343e-09    
  8.751826608111769e-09    1.2227162774324191e-08    8.681022198226512e-09    1.2227165180786416e-08    8.751830531227749e-09    
  7.050800349165455e-09    6.122180844464937e-09    4.1149317802836725e-09    2.8529866294764982e-09    1.940989940856441e-09    
  1.3054002070288028e-09    8.278198246073943e-10    5.119048608047199e-10    2.9820442592417755e-10    1.7217638650268457e-10    
  9.357085637698426e-11    5.26225178499053e-11    2.8407161365960017e-11    1.7658007934058532e-11    1.1606657676165358e-11    
  1.0703620563656933e-11    8.461545589184123e-12    9.628501301506091e-12    1.3959115753430915e-11    2.3161540204779977e-11    
  4.150821978425637e-11    7.500682009202408e-11    1.3504358052390824e-10    2.3536910394590346e-10    3.9981402722321786e-10    
  6.462514433556596e-10    1.0101171817582566e-09    1.4975783444626985e-09    2.1450779255392613e-09    2.8977445493298048e-09    
  3.7134271424011032e-09    4.491045774318231e-09    6.039136093534502e-09    8.830267892938266e-09    8.103890306809113e-09    
  8.83027009270929e-09    6.039139965399995e-09    4.491050707004657e-09    3.713433343060474e-09    2.8977510533497892e-09    
  2.1450845775846578e-09    1.4975840722648944e-09    1.0101221728736114e-09    6.462551474087133e-10    3.998169467521265e-10    
  2.353711502405951e-10    1.3504517034178752e-10    7.500794854084775e-11    4.150904269364014e-11    2.3162081168673992e-11    
  1.3959413061858052e-11    9.628642574673155e-12    8.461545589184123e-12    6.60496271074362e-12    7.385664912793136e-12    
  1.0805427067289984e-11    1.7638921701832148e-11    3.165396282464063e-11    5.6586820997907506e-11    1.0159762620966396e-10    
  1.7584330431355732e-10    2.969099488652045e-10    4.765176478928397e-10    7.415236009292431e-10    1.0966803575064875e-09    
  1.5526368044138491e-09    2.097414275404806e-09    2.7312571950209247e-09    3.3091375773776766e-09    3.856927262221703e-09    
  4.756048940485151e-09    5.3990801487264446e-09    4.756050870325851e-09    3.856930714071286e-09    3.3091426581714964e-09    
  2.731263213497974e-09    2.097421034466951e-09    1.5526433076939216e-09    1.0966865400390574e-09    7.415286879268678e-10    
  4.765219323032396e-10    2.969131989935694e-10    1.758459389020255e-10    1.0159960529258557e-10    5.6588348536435905e-11    
  3.165503897012612e-11    1.7639625180877927e-11    1.0805832647008625e-11    7.385844395629737e-12    6.60496271074362e-12    
  4.767697634265952e-12    5.571513813889762e-12    7.786240587163652e-12    1.3055111632701219e-11    2.2687166254220313e-11    
  4.1063888477384466e-11    7.220990695705123e-11    1.254859051689327e-10    2.086347654813675e-10    3.352943955251078e-10    
  5.14703608668832e-10    7.622448233282047e-10    1.0701160411013548e-09    1.4306229219089816e-09    1.8152530991480078e-09    
  2.2039654517615986e-09    2.5579735703314058e-09    2.790600448157156e-09    2.8591816860013696e-09    2.7906020571020545e-09    
  2.5579768588689115e-09    2.2039700140148163e-09    1.8152589021973884e-09    1.4306291982123663e-09    1.070122650251357e-09    
  7.622508470278414e-10    5.147090904631983e-10    3.3529885460999327e-10    2.0863853657610607e-10    1.254888381683039e-10    
  7.221224946890421e-11    4.10655940606617e-11    2.2688355372955868e-11    1.3055865937232253e-11    7.786645993174643e-12    
  5.571705266986158e-12    4.767697634265952e-12    3.4555396973648787e-12    3.823169808839463e-12    5.571421517519575e-12    
  8.933567063623788e-12    1.587562764826309e-11    2.7911150470228647e-11    4.9558635137204146e-11    8.443078726414713e-11    
  1.407029436836785e-10    2.2333209109808958e-10    3.4282522208834645e-10    5.009536889239345e-10    7.039054581976842e-10    
  9.415937673018947e-10    1.2029686656358585e-09    1.4445717713452305e-09    1.65111984533971e-09    1.8010164529832103e-09    
  1.865505225362097e-09    1.8010179014833716e-09    1.651122660975538e-09    1.444576055888218e-09    1.2029739517357757e-09    
  9.416000312201616e-10    7.039118996966409e-10    5.009601986954274e-10    3.4283103453840474e-10    2.233372586838724e-10    
  1.407070968619239e-10    8.443412562719085e-11    4.956105366750349e-11    2.7912839192478306e-11    1.5876683605260942e-11    
  8.934175145318463e-12    5.571731281650547e-12    3.823296594192321e-12    3.4555396973648787e-12    2.2468947520995567e-12    
  2.6438296004257858e-12    3.625010315344522e-12    6.048661678646908e-12    1.0305221506552977e-11    1.8481145108738283e-11    
  3.1938022285922123e-11    5.4867239042050925e-11    8.975186952642551e-11    1.4301931394426443e-10    2.1691666148895865e-10    
  3.172551340384227e-10    4.4007600468590575e-10    5.82071572714664e-10    7.303869862982049e-10    8.826883844479199e-10    
  1.0124718958123224e-09    1.0903747985601907e-09    1.1096583580200708e-09    1.0903759854160792e-09    1.0124744299539385e-09    
  8.826921449116993e-10    7.303921870652537e-10    5.820778286323173e-10    4.400832518605206e-10    3.1726247609450405e-10    
  2.1692374270070197e-10    1.4302533440597084e-10    8.975674325155032e-11    5.487069968451201e-11    3.194029714354774e-11    
  1.848240930389847e-11    1.0305838831084185e-11    6.0489028525163515e-12    3.6250691871365122e-12    2.6438442318875765e-12    
  2.2468947520995567e-12    1.491588098854162e-12    1.6209673055124103e-12    2.3759232527060766e-12    3.727569360929867e-12    
  6.601530506818321e-12    1.1381332477912575e-11    2.004518932795078e-11    3.355903154881922e-11    5.536442943733709e-11    
  8.662958161852538e-11    1.316907112955742e-10    1.8996305069911405e-10    2.6321095670982594e-10    3.4753304270248854e-10    
  4.429034898981501e-10    5.261394641135149e-10    5.955412310039835e-10    6.474517803364922e-10    6.703491593762473e-10    
  6.474528630784995e-10    5.955434767860052e-10    5.261432995667557e-10    4.429089487418648e-10    3.475403288229969e-10    
  2.63219455943072e-10    1.8997223251558427e-10    1.316992828548791e-10    8.663684939438809e-11    5.536965885337519e-11    
  3.356226093139245e-11    2.0046630453402542e-11    1.1381636916191232e-11    6.601239745539428e-12    3.727149599463057e-12    
  2.3755729891100508e-12    1.6207891021699014e-12    1.491588098854162e-12    8.51452071246198e-13    1.0220192882802455e-12    
  1.3707002120072448e-12    2.308775993656891e-12    3.856063479587486e-12    6.9107105937214165e-12    1.1730123006174387e-11    
  2.0017711580822347e-11    3.221133111197483e-11    5.0844479465198767e-11    7.587305536414965e-11    1.0975996647083235e-10    
  1.5031821699242934e-10    1.9774435597752143e-10    2.445985650933003e-10    2.9375236422861984e-10    3.353242642564866e-10    
  3.618729948903859e-10    3.6772836068392603e-10    3.6187398473430124e-10    3.3532662022260294e-10    2.9375640413943395e-10    
  2.4460488452884755e-10    1.97752918737244e-10    1.5032868804976205e-10    1.097709915944697e-10    7.588332578547245e-11    
  5.0852509760983925e-11    3.2216471911628933e-11    2.0019821204033645e-11    1.1729975330466273e-11    6.909274798841186e-12    
  3.85438448563769e-12    2.3073644306444896e-12    1.3697943039196372e-12    1.0215855280255366e-12    8.51452071246198e-13    
  5.099335057822531e-13    5.383883429507236e-13    8.153060039747449e-13    1.2547623184354518e-12    2.2623610882408694e-12    