[{"__ndarray__": [[15, 15], "float64", [70.0, 3.5162111722863175e-50, 2.627129179044451e-50, -1.2366914304023837e-49, -1.0548633516858953e-49, -8.770469530375219e-50, 1.189580810401777e-24, -1.1256481084906098e-40, -3.440386771537803e-40, -1.1256481084906098e-40, 1.189580810401777e-24, -2.570909925209725e-41, -3.440386771537803e-40, -2.570909925209725e-41, 1.1895808104017765e-24, 3.5162111722863175e-50, 70.0, 1.5036674581108706e-50, -7.078344964738352e-50, -6.037631142526341e-50, -5.019878630397189e-50, 6.808701938459358e-25, -6.442775800758391e-41, -1.9691447504527078e-40, -6.442775800758391e-41, 6.808701938459358e-25, -1.4714897246423934e-41, -1.9691447504527078e-40, -1.4714897246423934e-41, 6.808701938459356e-25, 2.627129179044451e-50, 1.5036674581108706e-50, 70.0, -5.288569339285484e-50, -4.511002374332612e-50, -3.750590899978031e-50, 5.087106165558411e-25, -4.813705284147706e-41, -1.4712420210850949e-40, -4.813705284147706e-41, 5.087106165558411e-25, -1.0994202005673317e-41, -1.4712420210850949e-40, -1.0994202005673317e-41, 5.087106165558409e-25, -1.2366914304023837e-49, -7.078344964738352e-50, -5.288569339285484e-50, 70.0, 2.1235034894215054e-49, 1.765548364330932e-49, -2.3946978514324403e-24, 2.26599747011809e-40, 6.925705877111095e-40, 2.26599747011809e-40, -2.3946978514324403e-24, 5.175396593735156e-41, 6.925705877111095e-40, 5.175396593735156e-41, -2.3946978514324395e-24, -1.0548633516858953e-49, -6.037631142526341e-50, -4.511002374332612e-50, 2.1235034894215054e-49, 70.0, 1.505963589119156e-49, -2.0426105815378076e-24, 1.932832740227517e-40, 5.907434251358124e-40, 1.932832740227517e-40, -2.0426105815378076e-24, 4.414469173927179e-41, 5.907434251358124e-40, 4.414469173927179e-41, -2.0426105815378065e-24, -8.770469530375219e-50, -5.019878630397189e-50, -3.750590899978031e-50, 1.765548364330932e-49, 1.505963589119156e-49, 70.0, -1.6982914269576178e-24, 1.6070186369053802e-40, 4.9116287926228975e-40, 1.6070186369053802e-40, -1.6982914269576178e-24, 3.6703301257770563e-41, 4.9116287926228975e-40, 3.6703301257770563e-41, -1.6982914269576174e-24, 1.189580810401777e-24, 6.808701938459358e-25, 5.087106165558411e-25, -2.3946978514324403e-24, -2.0426105815378076e-24, -1.6982914269576178e-24, 69.70140710994374, -9.84367562949414e-16, -6.661877496165341e-15, -4.540509964638464e-15, -0.29859289005626266, -4.978244631421841e-16, -6.661877496165341e-15, -4.978244631421841e-16, -0.29859289005626977, -1.1256481084906098e-40, -6.442775800758391e-41, -4.813705284147706e-41, 2.26599747011809e-40, 1.932832740227517e-40, 1.6070186369053802e-40, -9.84367562949414e-16, 70.0, 6.303842275349026e-31, 3.2719286110919384e-31, -9.84367562949414e-16, 4.710694392481735e-32, 6.303842275349026e-31, 4.710694392481735e-32, -9.843675629494132e-16, -3.440386771537803e-40, -1.9691447504527078e-40, -1.4712420210850949e-40, 6.925705877111095e-40, 5.907434251358124e-40, 4.9116287926228975e-40, -6.661877496165341e-15, 6.303842275349026e-31, 70.0, 6.303842275349026e-31, -6.661877496165341e-15, 1.4397581757928804e-31, 1.9266816521419553e-30, 1.4397581757928804e-31, -6.661877496165338e-15, -1.1256481084906098e-40, -6.442775800758391e-41, -4.813705284147706e-41, 2.26599747011809e-40, 1.932832740227517e-40, 1.6070186369053802e-40, -4.540509964638464e-15, 3.2719286110919384e-31, 6.303842275349026e-31, 70.0, -4.540509964638464e-15, 4.710694392481735e-32, 6.303842275349026e-31, 4.710694392481735e-32, -4.540509964638464e-15, 1.189580810401777e-24, 6.808701938459358e-25, 5.087106165558411e-25, -2.3946978514324403e-24, -2.0426105815378076e-24, -1.6982914269576178e-24, -0.29859289005626266, -9.84367562949414e-16, -6.661877496165341e-15, -4.540509964638464e-15, 69.70140710994374, -4.978244631421841e-16, -6.661877496165341e-15, -4.978244631421841e-16, -0.29859289005626977, -2.570909925209725e-41, -1.4714897246423934e-41, -1.0994202005673317e-41, 5.175396593735156e-41, 4.414469173927179e-41, 3.6703301257770563e-41, -4.978244631421841e-16, 4.710694392481735e-32, 1.4397581757928804e-31, 4.710694392481735e-32, -4.978244631421841e-16, 70.0, 1.4397581757928804e-31, 1.0758931567433195e-32, -4.978244631421839e-16, -3.440386771537803e-40, -1.9691447504527078e-40, -1.4712420210850949e-40, 6.925705877111095e-40, 5.907434251358124e-40, 4.9116287926228975e-40, -6.661877496165341e-15, 6.303842275349026e-31, 1.9266816521419553e-30, 6.303842275349026e-31, -6.661877496165341e-15, 1.4397581757928804e-31, 70.0, 1.4397581757928804e-31, -6.661877496165338e-15, -2.570909925209725e-41, -1.4714897246423934e-41, -1.0994202005673317e-41, 5.175396593735156e-41, 4.414469173927179e-41, 3.6703301257770563e-41, -4.978244631421841e-16, 4.710694392481735e-32, 1.4397581757928804e-31, 4.710694392481735e-32, -4.978244631421841e-16, 1.0758931567433195e-32, 1.4397581757928804e-31, 70.0, -4.978244631421839e-16, 1.1895808104017765e-24, 6.808701938459356e-25, 5.087106165558409e-25, -2.3946978514324395e-24, -2.0426105815378065e-24, -1.6982914269576174e-24, -0.29859289005626977, -9.843675629494132e-16, -6.661877496165338e-15, -4.540509964638464e-15, -0.29859289005626977, -4.978244631421839e-16, -6.661877496165338e-15, -4.978244631421839e-16, 69.70140710994373]]}, {"__ndarray__": [[15], "float64", [4.190823558987338e-33, 5.9370000418982735e-33, 6.635470635062952e-33, 1.36, 1.3599999999999999, 1.36, -0.005672252935146743, 2.9057545613732727e-19, 0.0, -5.739105085389563e-19, -0.005672252935146743, 0.0, 0.0, 0.0, -0.005672252935146742]]}, {"__ndarray__": [[15], "float64", [2.3172407732978338e-26, 1.1586203866489169e-26, 1.1586203866489169e-26, -2.3172407732978338e-26, -3.4758611599467503e-26, -3.4758611599467503e-26, -0.00508108319110576, 2.8182768512768096e-18, 1.1620737679384605e-18, 2.8182768512768096e-18, -0.0050810831911057616, -7.26084835196195e-19, 1.1620737679384605e-18, -7.26084835196195e-19, -0.005081083191105761]]}, 0.2]