   2    8
1 1
    13.671861466387099    -0.000000000000000     0.000000000000000
    -0.000000000000000    13.671861466387099    -0.000000000000000
    -0.000000000000000     0.000000000000002    13.671861466387098
1 2
     1.726518151252520     0.000000000030753     0.000000000065831
    -0.000000000030272    -0.872517931724426     0.000000000000000
    -0.000000000065831    -0.000000000000000    -0.872517931724426
1 3
    -0.872517931724426    -0.000000000030753    -0.000000000000000
     0.000000000030272     1.726518151252520     0.000000000049493
     0.000000000000000    -0.000000000049013    -0.872517931724426
1 4
    -0.872517931724426     0.000000000000000    -0.000000000065831
     0.000000000000000    -0.872517931724426    -0.000000000049493
     0.000000000065831     0.000000000049013     1.726518151252520
1 5
    -3.413335938547230    -2.529505361890762    -2.529505361895907
    -2.529505375164413    -3.413335938547699    -2.529505368532964
    -2.529505375159735    -2.529505368523143    -3.413335938548165
1 6
    -3.413335938548165     2.529505362018901     2.529505361955767
     2.529505375036273    -3.413335938546764    -2.529505368463752
     2.529505375100809    -2.529505368591423    -3.413335938548165
1 7
    -3.413335938548165     2.529505361795359    -2.529505361859429
     2.529505375260750    -3.413335938547697     2.529505368591889
    -2.529505375196212     2.529505368463282    -3.413335938547228
1 8
    -3.413335938547231    -2.529505361923498     2.529505361799568
    -2.529505375132610    -3.413335938548633     2.529505368404827
     2.529505375255137     2.529505368651282    -3.413335938547229
5 1
    -3.413335920336402    -2.529505375004121    -2.529505361625893
    -2.529505361538730    -3.413335956329213    -2.529505368352498
    -2.529505361497285    -2.529505381689282    -3.413335938356422
5 2
    -3.413335921022929     2.529505375452842     2.529505362290316
     2.529505362179191    -3.413335956565849    -2.529505368731306
     2.529505362280495    -2.529505381995133    -3.413335938804444
5 3
    -3.413335920574909     2.529505375164761    -2.529505361524880
     2.529505361955650    -3.413335956502249     2.529505368324338
    -2.529505361771334     2.529505381779906    -3.413335938290950
5 4
    -3.413335920784423    -2.529505374972321     2.529505362069582
    -2.529505361954949    -3.413335956265611     2.529505368585293
     2.529505362197253     2.529505381730336    -3.413335938738972
5 5
    13.671861394818034    -0.000000000642030    -0.000000001210765
    -0.000000000642030    13.671861537956167     0.000000000174409
    -0.000000001210767     0.000000000174409    13.671861466387098
5 6
     1.726518142214593    -0.000000000050324    -0.000000000087068
     0.000000000010701    -0.872517936291858    -0.000000000011131
     0.000000000011438    -0.000000000011131    -0.872517931724426
5 7
    -0.872517927156994     0.000000000010221     0.000000000077269
    -0.000000000050805     1.726518160290448     0.000000000071518
     0.000000000077269    -0.000000000060143    -0.872517931724426
5 8
    -0.872517927156994     0.000000000040973     0.000000000011439
     0.000000000040973    -0.872517936291858    -0.000000000060624
    -0.000000000087068     0.000000000071038     1.726518151252520