nqpoint: 200    
npath: 4      
segment_nqpoint:
- 50
- 50
- 50
- 50
labels:
- [ 'G', 'X' ]
- [ 'X', 'U|K' ]
- [ 'U|K', 'G' ]
- [ 'G', 'L' ]
reciprocal_lattice:
- [  -0.18488278,   0.18488278,   0.18488278 ] # a*
- [   0.18488278,  -0.18488278,   0.18488278 ] # b*
- [   0.18488278,   0.18488278,  -0.18488278 ] # c*
natom: 2      
lattice:
- [     0.000000000100000,     2.704416287198000,     2.704416287167000 ] # a
- [     2.704416294294000,     0.000000000083000,     2.704416287184000 ] # b
- [     2.704416294257000,     2.704416287179000,     0.000000000120000 ] # c
points:
- symbol: Si # 1
  coordinates: [  0.000000000008000,  0.000000000005000,  0.000000000019000 ]
  mass: 28.085000
- symbol: Si # 2
  coordinates: [  0.249999999992000,  0.249999999994999,  0.249999999981000 ]
  mass: 28.085000

phonon:
- q-position: [    0.0000000,    0.0000000,    0.0000000 ]
  distance:    0.0000000
  band:
  - # 1
    frequency:    0.0000001585
  - # 2
    frequency:    0.0000002017
  - # 3
    frequency:    0.0000002640
  - # 4
    frequency:   15.4025505459
  - # 5
    frequency:   15.4025505660
  - # 6
    frequency:   15.4025505862

- q-position: [    0.0102041,    0.0000000,    0.0102041 ]
  distance:    0.0037731
  band:
  - # 1
    frequency:    0.1182667541
  - # 2
    frequency:    0.1182668121
  - # 3
    frequency:    0.2988532068
  - # 4
    frequency:   15.4013339577
  - # 5
    frequency:   15.4013339779
  - # 6
    frequency:   15.4019006329

- q-position: [    0.0204082,    0.0000000,    0.0204082 ]
  distance:    0.0075462
  band:
  - # 1
    frequency:    0.2364450515
  - # 2
    frequency:    0.2364451095
  - # 3
    frequency:    0.5975559818
  - # 4
    frequency:   15.3976855588
  - # 5
    frequency:   15.3976855790
  - # 6
    frequency:   15.3999446510

- q-position: [    0.0306122,    0.0000000,    0.0306122 ]
  distance:    0.0113194
  band:
  - # 1
    frequency:    0.3544466475
  - # 2
    frequency:    0.3544467055
  - # 3
    frequency:    0.8959582431
  - # 4
    frequency:   15.3916094802
  - # 5
    frequency:   15.3916095003
  - # 6
    frequency:   15.3966643298

- q-position: [    0.0408163,    0.0000000,    0.0408163 ]
  distance:    0.0150925
  band:
  - # 1
    frequency:    0.4721838577
  - # 2
    frequency:    0.4721839158
  - # 3
    frequency:    1.1939106053
  - # 4
    frequency:   15.3831127196
  - # 5
    frequency:   15.3831127397
  - # 6
    frequency:   15.3920293336

- q-position: [    0.0510204,    0.0000000,    0.0510204 ]
  distance:    0.0188656
  band:
  - # 1
    frequency:    0.5895697724
  - # 2
    frequency:    0.5895698305
  - # 3
    frequency:    1.4912647197
  - # 4
    frequency:   15.3722053097
  - # 5
    frequency:   15.3722053297
  - # 6
    frequency:   15.3859975721

- q-position: [    0.0612245,    0.0000000,    0.0612245 ]
  distance:    0.0226387
  band:
  - # 1
    frequency:    0.7065184733
  - # 2
    frequency:    0.7065185315
  - # 3
    frequency:    1.7878736044
  - # 4
    frequency:   15.3589005501
  - # 5
    frequency:   15.3589005700
  - # 6
    frequency:   15.3785155744

- q-position: [    0.0714286,    0.0000000,    0.0714286 ]
  distance:    0.0264118
  band:
  - # 1
    frequency:    0.8229452165
  - # 2
    frequency:    0.8229452748
  - # 3
    frequency:    2.0835919623
  - # 4
    frequency:   15.3432153018
  - # 5
    frequency:   15.3432153217
  - # 6
    frequency:   15.3695189608

- q-position: [    0.0816327,    0.0000000,    0.0816327 ]
  distance:    0.0301849
  band:
  - # 1
    frequency:    0.9387665724
  - # 2
    frequency:    0.9387666307
  - # 3
    frequency:    2.3782764827
  - # 4
    frequency:   15.3251703395
  - # 5
    frequency:   15.3251703593
  - # 6
    frequency:   15.3589330061

- q-position: [    0.0918367,    0.0000000,    0.0918367 ]
  distance:    0.0339581
  band:
  - # 1
    frequency:    1.0539005157
  - # 2
    frequency:    1.0539005741
  - # 3
    frequency:    2.6717861247
  - # 4
    frequency:   15.3047907582
  - # 5
    frequency:   15.3047907779
  - # 6
    frequency:   15.3466732883

- q-position: [    0.1020408,    0.0000000,    0.1020408 ]
  distance:    0.0377312
  band:
  - # 1
    frequency:    1.1682664602
  - # 2
    frequency:    1.1682665187
  - # 3
    frequency:    2.9639823804
  - # 4
    frequency:   15.2821064292
  - # 5
    frequency:   15.2821064487
  - # 6
    frequency:   15.3326464121

- q-position: [    0.1122449,    0.0000000,    0.1122449 ]
  distance:    0.0415043
  band:
  - # 1
    frequency:    1.2817852307
  - # 2
    frequency:    1.2817852893
  - # 3
    frequency:    3.2547295134
  - # 4
    frequency:   15.2571524995
  - # 5
    frequency:   15.2571525189
  - # 6
    frequency:   15.3167508002

- q-position: [    0.1224490,    0.0000000,    0.1224490 ]
  distance:    0.0452774
  band:
  - # 1
    frequency:    1.3943789686
  - # 2
    frequency:    1.3943790273
  - # 3
    frequency:    3.5438947738
  - # 4
    frequency:   15.2299699301
  - # 5
    frequency:   15.2299699493
  - # 6
    frequency:   15.2988775413

- q-position: [    0.1326531,    0.0000000,    0.1326531 ]
  distance:    0.0490505
  band:
  - # 1
    frequency:    1.5059709670
  - # 2
    frequency:    1.5059710259
  - # 3
    frequency:    3.8313485854
  - # 4
    frequency:   15.2006060634
  - # 5
    frequency:   15.2006060824
  - # 6
    frequency:   15.2789112848

- q-position: [    0.1428571,    0.0000000,    0.1428571 ]
  distance:    0.0528237
  band:
  - # 1
    frequency:    1.6164854331
  - # 2
    frequency:    1.6164854920
  - # 3
    frequency:    4.1169647052
  - # 4
    frequency:   15.1691152160
  - # 5
    frequency:   15.1691152349
  - # 6
    frequency:   15.2567311719

- q-position: [    0.1530612,    0.0000000,    0.1530612 ]
  distance:    0.0565968
  band:
  - # 1
    frequency:    1.7258471767
  - # 2
    frequency:    1.7258472357
  - # 3
    frequency:    4.4006203533
  - # 4
    frequency:   15.1355592865
  - # 5
    frequency:   15.1355593052
  - # 6
    frequency:   15.2322117914

- q-position: [    0.1632653,    0.0000000,    0.1632653 ]
  distance:    0.0603699
  band:
  - # 1
    frequency:    1.8339812256
  - # 2
    frequency:    1.8339812848
  - # 3
    frequency:    4.6821963134
  - # 4
    frequency:   15.1000083699
  - # 5
    frequency:   15.1000083883
  - # 6
    frequency:   15.2052241509

- q-position: [    0.1734694,    0.0000000,    0.1734694 ]
  distance:    0.0641430
  band:
  - # 1
    frequency:    1.9408123702
  - # 2
    frequency:    1.9408124295
  - # 3
    frequency:    4.9615770035
  - # 4
    frequency:   15.0625413710
  - # 5
    frequency:   15.0625413892
  - # 6
    frequency:   15.1756366523

- q-position: [    0.1836735,    0.0000000,    0.1836735 ]
  distance:    0.0679161
  band:
  - # 1
    frequency:    2.0462646408
  - # 2
    frequency:    2.0462647003
  - # 3
    frequency:    5.2386505161
  - # 4
    frequency:   15.0232466057
  - # 5
    frequency:   15.0232466236
  - # 6
    frequency:   15.1433160606

- q-position: [    0.1938776,    0.0000000,    0.1938776 ]
  distance:    0.0716892
  band:
  - # 1
    frequency:    2.1502607244
  - # 2
    frequency:    2.1502607840
  - # 3
    frequency:    5.5133086299
  - # 4
    frequency:   14.9822223803
  - # 5
    frequency:   14.9822223979
  - # 6
    frequency:   15.1081284586

- q-position: [    0.2040816,    0.0000000,    0.2040816 ]
  distance:    0.0754624
  band:
  - # 1
    frequency:    2.2527213290
  - # 2
    frequency:    2.2527213888
  - # 3
    frequency:    5.7854467919
  - # 4
    frequency:   14.9395775373
  - # 5
    frequency:   14.9395775547
  - # 6
    frequency:   15.0699401755

- q-position: [    0.2142857,    0.0000000,    0.2142857 ]
  distance:    0.0792355
  band:
  - # 1
    frequency:    2.3535645059
  - # 2
    frequency:    2.3535645658
  - # 3
    frequency:    6.0549640735
  - # 4
    frequency:   14.8954319570
  - # 5
    frequency:   14.8954319740
  - # 6
    frequency:   15.0286186841

- q-position: [    0.2244898,    0.0000000,    0.2244898 ]
  distance:    0.0830086
  band:
  - # 1
    frequency:    2.4527049421
  - # 2
    frequency:    2.4527050021
  - # 3
    frequency:    6.3217631009
  - # 4
    frequency:   14.8499170002
  - # 5
    frequency:   14.8499170169
  - # 6
    frequency:   14.9840334569

- q-position: [    0.2346939,    0.0000000,    0.2346939 ]
  distance:    0.0867817
  band:
  - # 1
    frequency:    2.5500532393
  - # 2
    frequency:    2.5500532995
  - # 3
    frequency:    6.5857499611
  - # 4
    frequency:   14.8031758807
  - # 5
    frequency:   14.8031758971
  - # 6
    frequency:   14.9360567751

- q-position: [    0.2448980,    0.0000000,    0.2448980 ]
  distance:    0.0905548
  band:
  - # 1
    frequency:    2.6455151951
  - # 2
    frequency:    2.6455152554
  - # 3
    frequency:    6.8468340883
  - # 4
    frequency:   14.7553639516
  - # 5
    frequency:   14.7553639676
  - # 6
    frequency:   14.8845644843

- q-position: [    0.2551020,    0.0000000,    0.2551020 ]
  distance:    0.0943279
  band:
  - # 1
    frequency:    2.7389911080
  - # 2
    frequency:    2.7389911684
  - # 3
    frequency:    7.1049281304
  - # 4
    frequency:   14.7066488899
  - # 5
    frequency:   14.7066489055
  - # 6
    frequency:   14.8294366932

- q-position: [    0.2653061,    0.0000000,    0.2653061 ]
  distance:    0.0981011
  band:
  - # 1
    frequency:    2.8303751267
  - # 2
    frequency:    2.8303751873
  - # 3
    frequency:    7.3599478009
  - # 4
    frequency:   14.6572107646
  - # 5
    frequency:   14.6572107798
  - # 6
    frequency:   14.7705584089

- q-position: [    0.2755102,    0.0000000,    0.2755102 ]
  distance:    0.1018742
  band:
  - # 1
    frequency:    2.9195546692
  - # 2
    frequency:    2.9195547299
  - # 3
    frequency:    7.6118117183
  - # 4
    frequency:   14.6072419687
  - # 5
    frequency:   14.6072419835
  - # 6
    frequency:   14.7078201073

- q-position: [    0.2857143,    0.0000000,    0.2857143 ]
  distance:    0.1056473
  band:
  - # 1
    frequency:    3.0064099356
  - # 2
    frequency:    3.0064099964
  - # 3
    frequency:    7.8604412358
  - # 4
    frequency:   14.5569469986
  - # 5
    frequency:   14.5569470129
  - # 6
    frequency:   14.6411182368

- q-position: [    0.2959184,    0.0000000,    0.2959184 ]
  distance:    0.1094204
  band:
  - # 1
    frequency:    3.0908135440
  - # 2
    frequency:    3.0908136050
  - # 3
    frequency:    8.1057602665
  - # 4
    frequency:   14.5065420617
  - # 5
    frequency:   14.5065420756
  - # 6
    frequency:   14.5703556510

- q-position: [    0.3061224,    0.0000000,    0.3061224 ]
  distance:    0.1131935
  band:
  - # 1
    frequency:    3.1726303160
  - # 2
    frequency:    3.1726303771
  - # 3
    frequency:    8.3476951059
  - # 4
    frequency:   14.4562544934
  - # 5
    frequency:   14.4562545068
  - # 6
    frequency:   14.4954419739

- q-position: [    0.3163265,    0.0000000,    0.3163265 ]
  distance:    0.1169667
  band:
  - # 1
    frequency:    3.2517172395
  - # 2
    frequency:    3.2517173007
  - # 3
    frequency:    8.5861742566
  - # 4
    frequency:   14.4063219643
  - # 5
    frequency:   14.4063219772
  - # 6
    frequency:   14.4162938934

- q-position: [    0.3265306,    0.0000000,    0.3265306 ]
  distance:    0.1207398
  band:
  - # 1
    frequency:    3.3279236385
  - # 2
    frequency:    3.3279236998
  - # 3
    frequency:    8.8211282585
  - # 4
    frequency:   14.3328353880
  - # 5
    frequency:   14.3569914606
  - # 6
    frequency:   14.3569914730

- q-position: [    0.3367347,    0.0000000,    0.3367347 ]
  distance:    0.1245129
  band:
  - # 1
    frequency:    3.4010915722
  - # 2
    frequency:    3.4010916337
  - # 3
    frequency:    9.0524895281
  - # 4
    frequency:   14.2449978851
  - # 5
    frequency:   14.3085180223
  - # 6
    frequency:   14.3085180341

- q-position: [    0.3469388,    0.0000000,    0.3469388 ]
  distance:    0.1282860
  band:
  - # 1
    frequency:    3.4710564886
  - # 2
    frequency:    3.4710565502
  - # 3
    frequency:    9.2801922104
  - # 4
    frequency:   14.1527203551
  - # 5
    frequency:   14.2611632244
  - # 6
    frequency:   14.2611632356

- q-position: [    0.3571429,    0.0000000,    0.3571429 ]
  distance:    0.1320591
  band:
  - # 1
    frequency:    3.5376481488
  - # 2
    frequency:    3.5376482105
  - # 3
    frequency:    9.5041720473
  - # 4
    frequency:   14.0559493430
  - # 5
    frequency:   14.2151933950
  - # 6
    frequency:   14.2151934056

- q-position: [    0.3673469,    0.0000000,    0.3673469 ]
  distance:    0.1358322
  band:
  - # 1
    frequency:    3.6006918339
  - # 2
    frequency:    3.6006918957
  - # 3
    frequency:    9.7243662648
  - # 4
    frequency:   13.9546389422
  - # 5
    frequency:   14.1708775654
  - # 6
    frequency:   14.1708775754

- q-position: [    0.3775510,    0.0000000,    0.3775510 ]
  distance:    0.1396054
  band:
  - # 1
    frequency:    3.6600098386
  - # 2
    frequency:    3.6600099005
  - # 3
    frequency:    9.9407134834
  - # 4
    frequency:   13.8487507121
  - # 5
    frequency:   14.1284851579
  - # 6
    frequency:   14.1284851672

- q-position: [    0.3877551,    0.0000000,    0.3877551 ]
  distance:    0.1433785
  band:
  - # 1
    frequency:    3.7154232453
  - # 2
    frequency:    3.7154233073
  - # 3
    frequency:   10.1531536527
  - # 4
    frequency:   13.7382535455
  - # 5
    frequency:   14.0882834236
  - # 6
    frequency:   14.0882834322

- q-position: [    0.3979592,    0.0000000,    0.3979592 ]
  distance:    0.1471516
  band:
  - # 1
    frequency:    3.7667539615
  - # 2
    frequency:    3.7667540235
  - # 3
    frequency:   10.3616280139
  - # 4
    frequency:   13.6231234904
  - # 5
    frequency:   14.0505346548
  - # 6
    frequency:   14.0505346627

- q-position: [    0.4081633,    0.0000000,    0.4081633 ]
  distance:    0.1509247
  band:
  - # 1
    frequency:    3.8138269904
  - # 2
    frequency:    3.8138270525
  - # 3
    frequency:   10.5660790918
  - # 4
    frequency:   13.5033435291
  - # 5
    frequency:   14.0154932073
  - # 6
    frequency:   14.0154932145

- q-position: [    0.4183673,    0.0000000,    0.4183673 ]
  distance:    0.1546978
  band:
  - # 1
    frequency:    3.8564728933
  - # 2
    frequency:    3.8564729555
  - # 3
    frequency:   10.7664507171
  - # 4
    frequency:   13.3789033219
  - # 5
    frequency:   13.9834023803
  - # 6
    frequency:   13.9834023869

- q-position: [    0.4285714,    0.0000000,    0.4285714 ]
  distance:    0.1584710
  band:
  - # 1
    frequency:    3.8945303864
  - # 2
    frequency:    3.8945304487
  - # 3
    frequency:   10.9626880821
  - # 4
    frequency:   13.2497989192
  - # 5
    frequency:   13.9544912145
  - # 6
    frequency:   13.9544912203

- q-position: [    0.4387755,    0.0000000,    0.4387755 ]
  distance:    0.1622441
  band:
  - # 1
    frequency:    3.9278490032
  - # 2
    frequency:    3.9278490656
  - # 3
    frequency:   11.1547378281
  - # 4
    frequency:   13.1160324477
  - # 5
    frequency:   13.9289712800
  - # 6
    frequency:   13.9289712851

- q-position: [    0.4489796,    0.0000000,    0.4489796 ]
  distance:    0.1660172
  band:
  - # 1
    frequency:    3.9562917452
  - # 2
    frequency:    3.9562918075
  - # 3
    frequency:   11.3425481664
  - # 4
    frequency:   12.9776117762
  - # 5
    frequency:   13.9070335372
  - # 6
    frequency:   13.9070335416

- q-position: [    0.4591837,    0.0000000,    0.4591837 ]
  distance:    0.1697903
  band:
  - # 1
    frequency:    3.9797376314
  - # 2
    frequency:    3.9797376938
  - # 3
    frequency:   11.5260690321
  - # 4
    frequency:   12.8345501658
  - # 5
    frequency:   13.8888453587
  - # 6
    frequency:   13.8888453623

- q-position: [    0.4693878,    0.0000000,    0.4693878 ]
  distance:    0.1735634
  band:
  - # 1
    frequency:    3.9980840594
  - # 2
    frequency:    3.9980841218
  - # 3
    frequency:   11.7052522704
  - # 4
    frequency:   12.6868659106
  - # 5
    frequency:   13.8745478045
  - # 6
    frequency:   13.8745478075

- q-position: [    0.4795918,    0.0000000,    0.4795918 ]
  distance:    0.1773365
  band:
  - # 1
    frequency:    4.0112488845
  - # 2
    frequency:    4.0112489470
  - # 3
    frequency:   11.8800518525
  - # 4
    frequency:   12.5345819734
  - # 5
    frequency:   13.8642532427
  - # 6
    frequency:   13.8642532451

- q-position: [    0.4897959,    0.0000000,    0.4897959 ]
  distance:    0.1811097
  band:
  - # 1
    frequency:    4.0191721380
  - # 2
    frequency:    4.0191722004
  - # 3
    frequency:   12.0504241222
  - # 4
    frequency:   12.3777256217
  - # 5
    frequency:   13.8580433981
  - # 6
    frequency:   13.8580433999

- q-position: [    0.5000000,    0.0000000,    0.5000000 ]
  distance:    0.1848828
  band:
  - # 1
    frequency:    4.0218173090
  - # 2
    frequency:    4.0218173715
  - # 3
    frequency:   12.2163280523
  - # 4
    frequency:   12.2163280843
  - # 5
    frequency:   13.8559679017
  - # 6
    frequency:   13.8559679034

- q-position: [    0.5000000,    0.0000000,    0.5000000 ]
  distance:    0.1848828
  band:
  - # 1
    frequency:    4.0218173090
  - # 2
    frequency:    4.0218173715
  - # 3
    frequency:   12.2163280523
  - # 4
    frequency:   12.2163280843
  - # 5
    frequency:   13.8559679017
  - # 6
    frequency:   13.8559679034

- q-position: [    0.5025510,    0.0051020,    0.5025510 ]
  distance:    0.1862168
  band:
  - # 1
    frequency:    4.0217145803
  - # 2
    frequency:    4.0235396914
  - # 3
    frequency:   12.2156297381
  - # 4
    frequency:   12.2160269772
  - # 5
    frequency:   13.8560798123
  - # 6
    frequency:   13.8563533716

- q-position: [    0.5051020,    0.0102041,    0.5051020 ]
  distance:    0.1875508
  band:
  - # 1
    frequency:    4.0214062905
  - # 2
    frequency:    4.0286999208
  - # 3
    frequency:   12.2135371677
  - # 4
    frequency:   12.2151243248
  - # 5
    frequency:   13.8564155011
  - # 6
    frequency:   13.8575074215

- q-position: [    0.5076531,    0.0153061,    0.5076531 ]
  distance:    0.1888848
  band:
  - # 1
    frequency:    4.0208924418
  - # 2
    frequency:    4.0372776403
  - # 3
    frequency:   12.2100575708
  - # 4
    frequency:   12.2136219762
  - # 5
    frequency:   13.8569748506
  - # 6
    frequency:   13.8594230260

- q-position: [    0.5102041,    0.0204082,    0.5102041 ]
  distance:    0.1902188
  band:
  - # 1
    frequency:    4.0201729858
  - # 2
    frequency:    4.0492391492
  - # 3
    frequency:   12.2052028125
  - # 4
    frequency:   12.2115230441
  - # 5
    frequency:   13.8577576627
  - # 6
    frequency:   13.8620886316

- q-position: [    0.5127551,    0.0255102,    0.5127551 ]
  distance:    0.1915528
  band:
  - # 1
    frequency:    4.0192478548
  - # 2
    frequency:    4.0645378434
  - # 3
    frequency:   12.1989891815
  - # 4
    frequency:   12.2088318960
  - # 5
    frequency:   13.8587636608
  - # 6
    frequency:   13.8654883859

- q-position: [    0.5153061,    0.0306122,    0.5153061 ]
  distance:    0.1928868
  band:
  - # 1
    frequency:    4.0181169619
  - # 2
    frequency:    4.0831147698
  - # 3
    frequency:   12.1914370847
  - # 4
    frequency:   12.2055541640
  - # 5
    frequency:   13.8599924892
  - # 6
    frequency:   13.8696024415

- q-position: [    0.5178571,    0.0357143,    0.5178571 ]
  distance:    0.1942208
  band:
  - # 1
    frequency:    4.0167802011
  - # 2
    frequency:    4.1048993082
  - # 3
    frequency:   12.1825706786
  - # 4
    frequency:   12.2016967572
  - # 5
    frequency:   13.8614437137
  - # 6
    frequency:   13.8744073247

- q-position: [    0.5204082,    0.0408163,    0.5204082 ]
  distance:    0.1955548
  band:
  - # 1
    frequency:    4.0152374473
  - # 2
    frequency:    4.1298099598
  - # 3
    frequency:   12.1724174516
  - # 4
    frequency:   12.1972678770
  - # 5
    frequency:   13.8631168218
  - # 6
    frequency:   13.8798763513

- q-position: [    0.5229592,    0.0459184,    0.5229592 ]
  distance:    0.1968888
  band:
  - # 1
    frequency:    4.0134885569
  - # 2
    frequency:    4.1577552204
  - # 3
    frequency:   12.1610077740
  - # 4
    frequency:   12.1922770350
  - # 5
    frequency:   13.8650112229
  - # 6
    frequency:   13.8859800763

- q-position: [    0.5255102,    0.0510204,    0.5255102 ]
  distance:    0.1982228
  band:
  - # 1
    frequency:    4.0115333673
  - # 2
    frequency:    4.1886345125
  - # 3
    frequency:   12.1483744306
  - # 4
    frequency:   12.1867350741
  - # 5
    frequency:   13.8671262488
  - # 6
    frequency:   13.8926867597

- q-position: [    0.5280612,    0.0561224,    0.5280612 ]
  distance:    0.1995568
  band:
  - # 1
    frequency:    4.0093716976
  - # 2
    frequency:    4.2223391545
  - # 3
    frequency:   12.1345521515
  - # 4
    frequency:   12.1806541917
  - # 5
    frequency:   13.8694611540
  - # 6
    frequency:   13.8999628343

- q-position: [    0.5306122,    0.0612245,    0.5306122 ]
  distance:    0.2008908
  band:
  - # 1
    frequency:    4.0070033489
  - # 2
    frequency:    4.2587533425
  - # 3
    frequency:   12.1195771530
  - # 4
    frequency:   12.1740479664
  - # 5
    frequency:   13.8720151162
  - # 6
    frequency:   13.9077733632

- q-position: [    0.5331633,    0.0663265,    0.5331633 ]
  distance:    0.2022248
  band:
  - # 1
    frequency:    4.0044281040
  - # 2
    frequency:    4.2977551242
  - # 3
    frequency:   12.1034867010
  - # 4
    frequency:   12.1669313865
  - # 5
    frequency:   13.8747872368
  - # 6
    frequency:   13.9160824745

- q-position: [    0.5357143,    0.0714286,    0.5357143 ]
  distance:    0.2035588
  band:
  - # 1
    frequency:    4.0016457283
  - # 2
    frequency:    4.3392173468
  - # 3
    frequency:   12.0863187041
  - # 4
    frequency:   12.1593208821
  - # 5
    frequency:   13.8777765414
  - # 6
    frequency:   13.9248537668

- q-position: [    0.5382653,    0.0765306,    0.5382653 ]
  distance:    0.2048928
  band:
  - # 1
    frequency:    3.9986559695
  - # 2
    frequency:    4.3830085612
  - # 3
    frequency:   12.0681113429
  - # 4
    frequency:   12.1512343590
  - # 5
    frequency:   13.8809819804
  - # 6
    frequency:   13.9340506772

- q-position: [    0.5408163,    0.0816327,    0.5408163 ]
  distance:    0.2062268
  band:
  - # 1
    frequency:    3.9954585585
  - # 2
    frequency:    4.4289938725
  - # 3
    frequency:   12.0489027394
  - # 4
    frequency:   12.1426912355
  - # 5
    frequency:   13.8844024296
  - # 6
    frequency:   13.9436368100

- q-position: [    0.5433673,    0.0867347,    0.5433673 ]
  distance:    0.2075608
  band:
  - # 1
    frequency:    3.9920532091
  - # 2
    frequency:    4.4770357240
  - # 3
    frequency:   12.0287306679
  - # 4
    frequency:   12.1337124813
  - # 5
    frequency:   13.8880366908
  - # 6
    frequency:   13.9535762230

- q-position: [    0.5459184,    0.0918367,    0.5459184 ]
  distance:    0.2088948
  band:
  - # 1
    frequency:    3.9884396191
  - # 2
    frequency:    4.5269946104
  - # 3
    frequency:   12.0076323083
  - # 4
    frequency:   12.1243206590
  - # 5
    frequency:   13.8918834929
  - # 6
    frequency:   13.9638336721

- q-position: [    0.5484694,    0.0969388,    0.5484694 ]
  distance:    0.2102288
  band:
  - # 1
    frequency:    3.9846174700
  - # 2
    frequency:    4.5787297154
  - # 3
    frequency:   11.9856440390
  - # 4
    frequency:   12.1145399671
  - # 5
    frequency:   13.8959414919
  - # 6
    frequency:   13.9743748156

- q-position: [    0.5510204,    0.1020408,    0.5510204 ]
  distance:    0.2115628
  band:
  - # 1
    frequency:    3.9805864277
  - # 2
    frequency:    4.6320994716
  - # 3
    frequency:   11.9628012682
  - # 4
    frequency:   12.1043962852
  - # 5
    frequency:   13.9002092724
  - # 6
    frequency:   13.9851663795

- q-position: [    0.5535714,    0.1071429,    0.5535714 ]
  distance:    0.2128968
  band:
  - # 1
    frequency:    3.9763461430
  - # 2
    frequency:    4.6869620439
  - # 3
    frequency:   11.9391383002
  - # 4
    frequency:   12.0939172198
  - # 5
    frequency:   13.9046853482
  - # 6
    frequency:   13.9961762888

- q-position: [    0.5561224,    0.1122449,    0.5561224 ]
  distance:    0.2142307
  band:
  - # 1
    frequency:    3.9718962517
  - # 2
    frequency:    4.7431757396
  - # 3
    frequency:   11.9146882327
  - # 4
    frequency:   12.0831321527
  - # 5
    frequency:   13.9093681629
  - # 6
    frequency:   14.0073737666

- q-position: [    0.5586735,    0.1173469,    0.5586735 ]
  distance:    0.2155647
  band:
  - # 1
    frequency:    3.9672363757
  - # 2
    frequency:    4.8005993473
  - # 3
    frequency:   11.8894828824
  - # 4
    frequency:   12.0720722877
  - # 5
    frequency:   13.9142560913
  - # 6
    frequency:   14.0187294051

- q-position: [    0.5612245,    0.1224490,    0.5612245 ]
  distance:    0.2168987
  band:
  - # 1
    frequency:    3.9623661225
  - # 2
    frequency:    4.8590924102
  - # 3
    frequency:   11.8635527346
  - # 4
    frequency:   12.0607706997
  - # 5
    frequency:   13.9193474399
  - # 6
    frequency:   14.0302152128

- q-position: [    0.5637755,    0.1275510,    0.5637755 ]
  distance:    0.2182327
  band:
  - # 1
    frequency:    3.9572850868
  - # 2
    frequency:    4.9185154406
  - # 3
    frequency:   11.8369269126
  - # 4
    frequency:   12.0492623812
  - # 5
    frequency:   13.9246404480
  - # 6
    frequency:   14.0418046412

- q-position: [    0.5663265,    0.1326531,    0.5663265 ]
  distance:    0.2195667
  band:
  - # 1
    frequency:    3.9519928502
  - # 2
    frequency:    4.9787300794
  - # 3
    frequency:   11.8096331654
  - # 4
    frequency:   12.0375842882
  - # 5
    frequency:   13.9301332889
  - # 6
    frequency:   14.0534725935

- q-position: [    0.5688776,    0.1377551,    0.5688776 ]
  distance:    0.2209007
  band:
  - # 1
    frequency:    3.9464889819
  - # 2
    frequency:    5.0395992094
  - # 3
    frequency:   11.7816978684
  - # 4
    frequency:   12.0257753837
  - # 5
    frequency:   13.9358240707
  - # 6
    frequency:   14.0651954195

- q-position: [    0.5714286,    0.1428571,    0.5714286 ]
  distance:    0.2222347
  band:
  - # 1
    frequency:    3.9407730397
  - # 2
    frequency:    5.1009870275
  - # 3
    frequency:   11.7531460362
  - # 4
    frequency:   12.0138766773
  - # 5
    frequency:   13.9417108376
  - # 6
    frequency:   14.0769508992

- q-position: [    0.5739796,    0.1479592,    0.5739796 ]
  distance:    0.2235687
  band:
  - # 1
    frequency:    3.9348445698
  - # 2
    frequency:    5.1627590830
  - # 3
    frequency:   11.7240013442
  - # 4
    frequency:   12.0019312602
  - # 5
    frequency:   13.9477915707
  - # 6
    frequency:   14.0887182169

- q-position: [    0.5765306,    0.1530612,    0.5765306 ]
  distance:    0.2249027
  band:
  - # 1
    frequency:    3.9287031082
  - # 2
    frequency:    5.2247822887
  - # 3
    frequency:   11.6942861568
  - # 4
    frequency:   11.9899843340
  - # 5
    frequency:   13.9540641893
  - # 6
    frequency:   14.1004779285

- q-position: [    0.5790816,    0.1581633,    0.5790816 ]
  distance:    0.2262367
  band:
  - # 1
    frequency:    3.9223481805
  - # 2
    frequency:    5.2869249107
  - # 3
    frequency:   11.6640215612
  - # 4
    frequency:   11.9780832312
  - # 5
    frequency:   13.9605265524
  - # 6
    frequency:   14.1122119232

- q-position: [    0.5816327,    0.1632653,    0.5816327 ]
  distance:    0.2275707
  band:
  - # 1
    frequency:    3.9157793034
  - # 2
    frequency:    5.3490565441
  - # 3
    frequency:   11.6332274039
  - # 4
    frequency:   11.9662774269
  - # 5
    frequency:   13.9671764592
  - # 6
    frequency:   14.1239033825

- q-position: [    0.5841837,    0.1683673,    0.5841837 ]
  distance:    0.2289047
  band:
  - # 1
    frequency:    3.9089959844
  - # 2
    frequency:    5.4110480792
  - # 3
    frequency:   11.6019223308
  - # 4
    frequency:   11.9546185375
  - # 5
    frequency:   13.9740116509
  - # 6
    frequency:   14.1355367352

- q-position: [    0.5867347,    0.1734694,    0.5867347 ]
  distance:    0.2302387
  band:
  - # 1
    frequency:    3.9019977231
  - # 2
    frequency:    5.4727716662
  - # 3
    frequency:   11.5701238275
  - # 4
    frequency:   11.9431603059
  - # 5
    frequency:   13.9810298116
  - # 6
    frequency:   14.1470976126

- q-position: [    0.5892857,    0.1785714,    0.5892857 ]
  distance:    0.2315727
  band:
  - # 1
    frequency:    3.8947840117
  - # 2
    frequency:    5.5341006819
  - # 3
    frequency:   11.5378482604
  - # 4
    frequency:   11.9319585705
  - # 5
    frequency:   13.9882285699
  - # 6
    frequency:   14.1585728021

- q-position: [    0.5918367,    0.1836735,    0.5918367 ]
  distance:    0.2329067
  band:
  - # 1
    frequency:    3.8873543354
  - # 2
    frequency:    5.5949097053
  - # 3
    frequency:   11.5051109181
  - # 4
    frequency:   11.9210712138
  - # 5
    frequency:   13.9956054998
  - # 6
    frequency:   14.1699502010

- q-position: [    0.5943878,    0.1887755,    0.5943878 ]
  distance:    0.2342407
  band:
  - # 1
    frequency:    3.8797081735
  - # 2
    frequency:    5.6550745072
  - # 3
    frequency:   11.4719260514
  - # 4
    frequency:   11.9105580904
  - # 5
    frequency:   14.0031581221
  - # 6
    frequency:   14.1812187709

- q-position: [    0.5969388,    0.1938776,    0.5969388 ]
  distance:    0.2355747
  band:
  - # 1
    frequency:    3.8718449999
  - # 2
    frequency:    5.7144720589
  - # 3
    frequency:   11.4383069128
  - # 4
    frequency:   11.9004809280
  - # 5
    frequency:   14.0108839062
  - # 6
    frequency:   14.1923684937

- q-position: [    0.5994898,    0.1989796,    0.5994898 ]