   2   16
1 1
    13.809331697052057    -0.000000000000000     0.000000000000000
     0.000000000000000    13.809331697052055     0.000000000000000
    -0.000000000000000     0.000000000000004    13.809331697052066
1 2
     0.857475067022129     0.000000000027599     0.000000000038581
    -0.000000000027359    -0.439824482249243    -0.483595954921567
    -0.000000000038492    -0.483595954932833    -0.439824482249422
1 3
    -0.439824482249332    -0.000000000024470    -0.483595953655810
     0.000000000024319     0.857475067022129     0.000000000030337
    -0.483595956198590    -0.000000000030187    -0.439824482249332
1 4
    -0.439824482249422     0.483595953661443    -0.000000000023650
     0.483595956192957    -0.439824482249243    -0.000000000012455
     0.000000000023740     0.000000000012215     0.857475067022130
1 5
    -0.439824482249243    -0.483595953661443    -0.000000000042068
    -0.483595956192957    -0.439824482249422    -0.000000000036953
     0.000000000041979     0.000000000036714     0.857475067022130
1 6
    -0.439824482249332    -0.000000000006231     0.483595953655810
     0.000000000005901     0.857475067022129     0.000000000019072
     0.483595956198590    -0.000000000018742    -0.439824482249333
1 7
     0.857475067022129     0.000000000003101     0.000000000027137
    -0.000000000002861    -0.439824482249422     0.483595954921567
    -0.000000000027227     0.483595954932833    -0.439824482249243
1 8
    -0.133970145345984     0.000000000000000    -0.000000000000000
     0.000000000000000    -0.133970145345984    -0.000000000000000
     0.000000000000000    -0.000000000000000    -0.133970145345984
1 9
    -3.539479783991433    -2.392233082362435    -2.392233082367301
    -2.392233094915744    -3.539479783991875    -2.392233088644175
    -2.392233094911324    -2.392233088634889    -3.539479783992320
1 10
    -3.539479783992317     2.392233082483620     2.392233082423912
     2.392233094794559    -3.539479783990991    -2.392233088578718
     2.392233094855596    -2.392233088699465    -3.539479783992321
1 11
    -3.539479783992318     2.392233082272210    -2.392233082332802
     2.392233095006854    -3.539479783991875     2.392233088699904
    -2.392233094945821     2.392233088578276    -3.539479783991433
1 12
     0.131726344803650    -0.133185936697449     0.133185936690924
    -0.133185937392948     0.131726344803576     0.133185937038710
     0.133185937399399     0.133185937051687     0.131726344803650
1 13
    -3.539479783991434    -2.392233082393394     2.392233082276189
    -2.392233094885669    -3.539479783992759     2.392233088522990
     2.392233095001548     2.392233088756075    -3.539479783991435
1 14
     0.131726344803601     0.133185936690702    -0.133185936694076
     0.133185937399695     0.131726344803625     0.133185937048560
    -0.133185937396297     0.133185937041788     0.131726344803650
1 15
     0.131726344803601     0.133185936702472     0.133185936699148
     0.133185937387875     0.131726344803675    -0.133185937041813
     0.133185937391274    -0.133185937048535     0.131726344803601
1 16
     0.131726344803650    -0.133185936695726    -0.133185936695996
    -0.133185937394622     0.131726344803625    -0.133185937045457
    -0.133185937394376    -0.133185937044940     0.131726344803601
9 1
    -3.539479765138874    -2.392233094749530    -2.392233082084365
    -2.392233082014885    -3.539479802438420    -2.392233088477476
    -2.392233081962737    -2.392233101090494    -3.539479783810981
9 2
    -3.539479765788144     2.392233095203144     2.392233082767881
     2.392233082649835    -3.539479802662213    -2.392233088835725
     2.392233082758596    -2.392233101379748    -3.539479784234691
9 3
    -3.539479765364435     2.392233094930697    -2.392233081988830
     2.392233082438422    -3.539479802602063     2.392233088442896
    -2.392233082221915     2.392233101168256    -3.539479783749063
9 4
     0.131726344108552    -0.133185937399134     0.133185936677559
    -0.133185936713731     0.131726345501087     0.133185937052185
     0.133185936684282     0.133185937744311     0.131726344793554
9 5
    -3.539479765562581    -2.392233094719455     2.392233082559125
    -2.392233082408516    -3.539479802378268     2.392233088689692
     2.392233082679872     2.392233101121375    -3.539479784172773
9 6
     0.131726344119584     0.133185937380015    -0.133185936704042
     0.133185936684516     0.131726345488627     0.133185937038445
    -0.133185936717019     0.133185937746921     0.131726344817144
9 7
     0.131726344095994     0.133185937395183     0.133185936689182
     0.133185936696287     0.131726345485278    -0.133185937051927
     0.133185936688665    -0.133185937750307     0.131726344790107
9 8
     0.131726344132142    -0.133185937400808    -0.133185936709361
    -0.133185936691816     0.131726345497738    -0.133185937031982
    -0.133185936702590    -0.133185937734203     0.131726344813697
9 9
    13.809331624763365    -0.000000000648486    -0.000000001222943
    -0.000000000648486    13.809331769340744     0.000000000176165
    -0.000000001222947     0.000000000176165    13.809331697052066
9 10
     0.857475062533444    -0.000000000012668    -0.000000000037356
     0.000000000036122    -0.439824484557792    -0.483595954927178
     0.000000000023168    -0.483595957469958    -0.439824482255591
9 11
    -0.439824479904125    -0.000000000009985    -0.483595953616860
    -0.000000000015948     0.857475071510815     0.000000000041276
    -0.483595953628126    -0.000000000013088    -0.439824482206505
9 12
    -0.439824479969751     0.483595956213611     0.000000000021469
     0.483595953682097    -0.439824484574333    -0.000000000060893
    -0.000000000052198     0.000000000023154     0.857475067022130
9 13
    -0.439824479924153    -0.483595956172303    -0.000000000009287
    -0.483595953640789    -0.439824484529092     0.000000000000263
    -0.000000000033958     0.000000000047653     0.857475067022130
9 14
    -0.439824479989779     0.000000000020593     0.483595953694761
    -0.000000000034366     0.857475071510815     0.000000000030010
     0.483595953706026    -0.000000000047063    -0.439824482292160
9 15
     0.857475062533444    -0.000000000037166    -0.000000000048800
    -0.000000000025034    -0.439824484545633     0.483595954915956
    -0.000000000010986     0.483595957458736    -0.439824482243074
9 16
    -0.133970144644681     0.000000000006291     0.000000000011864
     0.000000000006291    -0.133970146047287    -0.000000000001709
     0.000000000011864    -0.000000000001709    -0.133970145345984