16   
1    

1    
  0.0000000000002615   0.0070710678119060   0.0070710678118249
  -0.0017017123   -0.0976467220   -0.0976467197
   0.0000044843    0.0065302142    0.0065302132
   0.0034057435   -0.0060653178    0.0031085193
  -0.0034328263    0.0031107727   -0.0060611937
   0.0034057767    0.0031085064   -0.0060653343
  -0.0034328013   -0.0060612116    0.0031107474
  -0.0000042858   -0.0003093649   -0.0003093783
   0.0000082051    0.0009473164    0.0009473076
   0.0345727148    0.0424883528    0.0424883481
  -0.0330949725    0.0413961877    0.0413961697
   0.0001288109    0.0080340864    0.0081929738
  -0.0000007647   -0.0018700617   -0.0018764379
   0.0001287867    0.0081929828    0.0080341114
  -0.0000007811   -0.0018764207   -0.0018700425
  -0.0018766667    0.0000069035    0.0000069204
   0.0018902886    0.0000137760    0.0000137955
