phonopy:
  version: "2.19.1"
  frequency_unit_conversion_factor: 15.633304
  symmetry_tolerance: 1.00000e-05

space_group:
  type: "Fd-3m"
  number: 227
  Hall_symbol: "F 4d 2 3 -1d"

supercell_matrix:
- [   2,   0,   0 ]
- [   0,   2,   0 ]
- [   0,   0,   2 ]

primitive_cell:
  lattice:
  - [     0.000000000100000,     2.704416287198000,     2.704416287167000 ] # a
  - [     2.704416294294000,     0.000000000083000,     2.704416287184000 ] # b
  - [     2.704416294257000,     2.704416287179000,     0.000000000120000 ] # c
  points:
  - symbol: Si # 1
    coordinates: [  0.000000000008000,  0.000000000005000,  0.000000000019000 ]
    mass: 28.085000
  - symbol: Si # 2
    coordinates: [  0.249999999992000,  0.249999999994999,  0.249999999981000 ]
    mass: 28.085000
  reciprocal_lattice: # without 2pi
  - [    -0.184882778988644,     0.184882779464316,     0.184882779469033 ] # a*
  - [     0.184882778979278,    -0.184882779471357,     0.184882779466640 ] # b*
  - [     0.184882778984269,     0.184882779467050,    -0.184882779476006 ] # c*

unit_cell:
  lattice:
  - [     0.000000000100000,     2.704416287198000,     2.704416287167000 ] # a
  - [     2.704416294294000,     0.000000000083000,     2.704416287184000 ] # b
  - [     2.704416294257000,     2.704416287179000,     0.000000000120000 ] # c
  points:
  - symbol: Si # 1
    coordinates: [  0.000000000008000,  0.000000000005000,  0.000000000019000 ]
    mass: 28.085000
    reduced_to: 1
  - symbol: Si # 2
    coordinates: [  0.249999999992000,  0.249999999994999,  0.249999999981000 ]
    mass: 28.085000
    reduced_to: 2

supercell:
  lattice:
  - [     0.000000000200000,     5.408832574396000,     5.408832574334000 ] # a
  - [     5.408832588588000,     0.000000000166000,     5.408832574368000 ] # b
  - [     5.408832588514000,     5.408832574358000,     0.000000000240000 ] # c
  points:
  - symbol: Si # 1
    coordinates: [  0.000000000004000,  0.000000000002500,  0.000000000009500 ]
    mass: 28.085000
    reduced_to: 1
  - symbol: Si # 2
    coordinates: [  0.500000000004000,  0.000000000002500,  0.000000000009500 ]
    mass: 28.085000
    reduced_to: 1
  - symbol: Si # 3
    coordinates: [  0.000000000004000,  0.500000000002500,  0.000000000009500 ]
    mass: 28.085000
    reduced_to: 1
  - symbol: Si # 4
    coordinates: [  0.500000000004000,  0.500000000002500,  0.000000000009500 ]
    mass: 28.085000
    reduced_to: 1
  - symbol: Si # 5
    coordinates: [  0.000000000004000,  0.000000000002500,  0.500000000009500 ]
    mass: 28.085000
    reduced_to: 1
  - symbol: Si # 6
    coordinates: [  0.500000000004000,  0.000000000002500,  0.500000000009500 ]
    mass: 28.085000
    reduced_to: 1
  - symbol: Si # 7
    coordinates: [  0.000000000004000,  0.500000000002500,  0.500000000009500 ]
    mass: 28.085000
    reduced_to: 1
  - symbol: Si # 8
    coordinates: [  0.500000000004000,  0.500000000002500,  0.500000000009500 ]
    mass: 28.085000
    reduced_to: 1
  - symbol: Si # 9
    coordinates: [  0.124999999996000,  0.124999999997500,  0.124999999990500 ]
    mass: 28.085000
    reduced_to: 9
  - symbol: Si # 10
    coordinates: [  0.624999999996000,  0.124999999997500,  0.124999999990500 ]
    mass: 28.085000
    reduced_to: 9
  - symbol: Si # 11
    coordinates: [  0.124999999996000,  0.624999999997500,  0.124999999990500 ]
    mass: 28.085000
    reduced_to: 9
  - symbol: Si # 12
    coordinates: [  0.624999999996000,  0.624999999997500,  0.124999999990500 ]
    mass: 28.085000
    reduced_to: 9
  - symbol: Si # 13
    coordinates: [  0.124999999996000,  0.124999999997500,  0.624999999990500 ]
    mass: 28.085000
    reduced_to: 9
  - symbol: Si # 14
    coordinates: [  0.624999999996000,  0.124999999997500,  0.624999999990500 ]
    mass: 28.085000
    reduced_to: 9
  - symbol: Si # 15
    coordinates: [  0.124999999996000,  0.624999999997500,  0.624999999990500 ]
    mass: 28.085000
    reduced_to: 9
  - symbol: Si # 16
    coordinates: [  0.624999999996000,  0.624999999997500,  0.624999999990500 ]
    mass: 28.085000
    reduced_to: 9

displacements:
- atom:    1
  displacement:
    [   0.0000000000002615,  0.0070710678119060,  0.0070710678118249 ]
  forces:
  - [  -0.0017017123142900, -0.0976467220153784, -0.0976467197174817 ]
  - [   0.0000044842741758,  0.0065302142293152,  0.0065302131722326 ]
  - [   0.0034057434958766, -0.0060653177694733,  0.0031085192553717 ]
  - [  -0.0034328263074821,  0.0031107726597142, -0.0060611937417159 ]
  - [   0.0034057767236038,  0.0031085063508115, -0.0060653342713543 ]
  - [  -0.0034328012648997, -0.0060612116003517,  0.0031107474151691 ]
  - [  -0.0000042858174517, -0.0003093648819485, -0.0003093782869329 ]
  - [   0.0000082050921647,  0.0009473163571846,  0.0009473076078296 ]
  - [   0.0345727148134957,  0.0424883527943122,  0.0424883480810249 ]
  - [  -0.0330949725021365,  0.0413961876591774,  0.0413961697439625 ]
  - [   0.0001288108523857,  0.0080340863634179,  0.0081929737586896 ]
  - [  -0.0000007646862876, -0.0018700616741440, -0.0018764379107681 ]
  - [   0.0001287867354278,  0.0081929827546725,  0.0080341114154757 ]
  - [  -0.0000007810745320, -0.0018764206579899, -0.0018700424693272 ]
  - [  -0.0018766666619805,  0.0000069034500904,  0.0000069204144252 ]
  - [   0.0018902886419300,  0.0000137759805899,  0.0000137955333994 ]
