# Thermal properties / unit cell (natom)

unit:
  temperature:   K
  free_energy:   kJ/mol
  entropy:       J/K/mol
  heat_capacity: J/K/mol

natom: 2    
cutoff_frequency: 0.00000
num_modes: 546750
num_integrated_modes: 546750

zero_point_energy:      11.8385277

thermal_properties:
- temperature:         0.0000000
  free_energy:        11.8385277
  entropy:             0.0000000
  heat_capacity:       0.0000000
  energy:             11.8385277

- temperature:        10.0000000
  free_energy:        11.8384268
  entropy:             0.0299467
  heat_capacity:       0.0796319
  energy:             11.8387262

- temperature:        20.0000000
  free_energy:        11.8373665
  entropy:             0.2279448
  heat_capacity:       0.7085080
  energy:             11.8419254

- temperature:        30.0000000
  free_energy:        11.8326395
  entropy:             0.7868462
  heat_capacity:       2.2990174
  energy:             11.8562449

- temperature:        40.0000000
  free_energy:        11.8203163
  entropy:             1.7350184
  heat_capacity:       4.4358132
  energy:             11.8897170

- temperature:        50.0000000
  free_energy:        11.7970125
  entropy:             2.9615735
  heat_capacity:       6.6232949
  energy:             11.9450912

- temperature:        60.0000000
  free_energy:        11.7605416
  entropy:             4.3525597
  heat_capacity:       8.6705556
  energy:             12.0216952

- temperature:        70.0000000
  free_energy:        11.7096649
  entropy:             5.8336503
  heat_capacity:      10.5749430
  energy:             12.1180204

- temperature:        80.0000000
  free_energy:        11.6437031
  entropy:             7.3650664
  heat_capacity:      12.3932971
  energy:             12.2329084

- temperature:        90.0000000
  free_energy:        11.5622597
  entropy:             8.9279479
  heat_capacity:      14.1773555
  energy:             12.3657750

- temperature:       100.0000000
  free_energy:        11.4650685
  entropy:            10.5136500
  heat_capacity:      15.9540099
  energy:             12.5164335

- temperature:       110.0000000
  free_energy:        11.3519265
  entropy:            12.1174414
  heat_capacity:      17.7271334
  energy:             12.6848451

- temperature:       120.0000000
  free_energy:        11.2226721
  entropy:            13.7354797
  heat_capacity:      19.4861225
  energy:             12.8709297

- temperature:       130.0000000
  free_energy:        11.0771829
  entropy:            15.3637024
  heat_capacity:      21.2141174
  energy:             13.0744642

- temperature:       140.0000000
  free_energy:        10.9153790
  entropy:            16.9976522
  heat_capacity:      22.8936713
  energy:             13.2950503

- temperature:       150.0000000
  free_energy:        10.7372263
  entropy:            18.6326645
  heat_capacity:      24.5098604
  energy:             13.5321260

- temperature:       160.0000000
  free_energy:        10.5427375
  entropy:            20.2641321
  heat_capacity:      26.0515372
  energy:             13.7849987

- temperature:       170.0000000
  free_energy:        10.3319700
  entropy:            21.8877287
  heat_capacity:      27.5114629
  energy:             14.0528838

- temperature:       180.0000000
  free_energy:        10.1050222
  entropy:            23.4995573
  heat_capacity:      28.8858691
  energy:             14.3349425

- temperature:       190.0000000
  free_energy:         9.8620294
  entropy:            25.0962281
  heat_capacity:      30.1738006
  energy:             14.6303127

- temperature:       200.0000000
  free_energy:         9.6031578
  entropy:            26.6748813
  heat_capacity:      31.3764327
  energy:             14.9381341

- temperature:       210.0000000
  free_energy:         9.3285997
  entropy:            28.2331725
  heat_capacity:      32.4964603
  energy:             15.2575659

- temperature:       220.0000000
  free_energy:         9.0385685
  entropy:            29.7692351
  heat_capacity:      33.5375921
  energy:             15.5878002

- temperature:       230.0000000
  free_energy:         8.7332939
  entropy:            31.2816315
  heat_capacity:      34.5041539
  energy:             15.9280692

- temperature:       240.0000000
  free_energy:         8.4130183
  entropy:            32.7692995
  heat_capacity:      35.4007908
  energy:             16.2776502

- temperature:       250.0000000
  free_energy:         8.0779929
  entropy:            34.2314995
  heat_capacity:      36.2322504
  energy:             16.6358677

- temperature:       260.0000000
  free_energy:         7.7284748
  entropy:            35.6677647
  heat_capacity:      37.0032311
  energy:             17.0020936

- temperature:       270.0000000
  free_energy:         7.3647248
  entropy:            37.0778560
  heat_capacity:      37.7182803
  energy:             17.3757460

- temperature:       280.0000000
  free_energy:         6.9870051
  entropy:            38.4617219
  heat_capacity:      38.3817294
  energy:             17.7562873

- temperature:       290.0000000
  free_energy:         6.5955775
  entropy:            39.8194644
  heat_capacity:      38.9976562
  energy:             18.1432222

- temperature:       300.0000000
  free_energy:         6.1907022
  entropy:            41.1513084
  heat_capacity:      39.5698665
  energy:             18.5360947

- temperature:       310.0000000
  free_energy:         5.7726366
  entropy:            42.4575773
  heat_capacity:      40.1018891
  energy:             18.9344856

- temperature:       320.0000000
  free_energy:         5.3416345
  entropy:            43.7386714
  heat_capacity:      40.5969802
  energy:             19.3380094

- temperature:       330.0000000
  free_energy:         4.8979455
  entropy:            44.9950501
  heat_capacity:      41.0581334
  energy:             19.7463121

- temperature:       340.0000000
  free_energy:         4.4418143
  entropy:            46.2272172
  heat_capacity:      41.4880937
  energy:             20.1590681

- temperature:       350.0000000
  free_energy:         3.9734801
  entropy:            47.4357092
  heat_capacity:      41.8893727
  energy:             20.5759784

- temperature:       360.0000000
  free_energy:         3.4931771
  entropy:            48.6210848
  heat_capacity:      42.2642661
  energy:             20.9967676

- temperature:       370.0000000
  free_energy:         3.0011336
  entropy:            49.7839167
  heat_capacity:      42.6148698
  energy:             21.4211827

- temperature:       380.0000000
  free_energy:         2.4975720
  entropy:            50.9247854
  heat_capacity:      42.9430968
  energy:             21.8489905

- temperature:       390.0000000
  free_energy:         1.9827091
  entropy:            52.0442738
  heat_capacity:      43.2506924
  energy:             22.2799759

- temperature:       400.0000000
  free_energy:         1.4567559
  entropy:            53.1429625
  heat_capacity:      43.5392491
  energy:             22.7139409

- temperature:       410.0000000
  free_energy:         0.9199173
  entropy:            54.2214268
  heat_capacity:      43.8102205
  energy:             23.1507023

- temperature:       420.0000000
  free_energy:         0.3723928
  entropy:            55.2802339
  heat_capacity:      44.0649336
  energy:             23.5900911

- temperature:       430.0000000
  free_energy:        -0.1856237
  entropy:            56.3199408
  heat_capacity:      44.3046008
  energy:             24.0319508

- temperature:       440.0000000
  free_energy:        -0.7539441
  entropy:            57.3410927
  heat_capacity:      44.5303303
  energy:             24.4761367

- temperature:       450.0000000
  free_energy:        -1.3323855
  entropy:            58.3442219
  heat_capacity:      44.7431358
  energy:             24.9225144

- temperature:       460.0000000
  free_energy:        -1.9207702
  entropy:            59.3298470
  heat_capacity:      44.9439452
  energy:             25.3709594

- temperature:       470.0000000
  free_energy:        -2.5189258
  entropy:            60.2984721
  heat_capacity:      45.1336087
  energy:             25.8213561

- temperature:       480.0000000
  free_energy:        -3.1266846
  entropy:            61.2505868
  heat_capacity:      45.3129062
  energy:             26.2735970

- temperature:       490.0000000
  free_energy:        -3.7438841
  entropy:            62.1866656
  heat_capacity:      45.4825530
  energy:             26.7275821

- temperature:       500.0000000
  free_energy:        -4.3703660
  entropy:            63.1071683
  heat_capacity:      45.6432068
  energy:             27.1832181

- temperature:       510.0000000
  free_energy:        -5.0059770
  entropy:            64.0125397
  heat_capacity:      45.7954718
  energy:             27.6404183

- temperature:       520.0000000
  free_energy:        -5.6505678
  entropy:            64.9032101
  heat_capacity:      45.9399047
  energy:             28.0991015

- temperature:       530.0000000
  free_energy:        -6.3039936
  entropy:            65.7795953
  heat_capacity:      46.0770179
  energy:             28.5591920

- temperature:       540.0000000
  free_energy:        -6.9661134
  entropy:            66.6420971
  heat_capacity:      46.2072842
  energy:             29.0206190

- temperature:       550.0000000
  free_energy:        -7.6367905
  entropy:            67.4911033
  heat_capacity:      46.3311399
  energy:             29.4833163

- temperature:       560.0000000
  free_energy:        -8.3158918
  entropy:            68.3269885
  heat_capacity:      46.4489883
  energy:             29.9472218

- temperature:       570.0000000
  free_energy:        -9.0032878
  entropy:            69.1501141
  heat_capacity:      46.5612021
  energy:             30.4122773

- temperature:       580.0000000
  free_energy:        -9.6988527
  entropy:            69.9608291
  heat_capacity:      46.6681266
  energy:             30.8784282

- temperature:       590.0000000
  free_energy:       -10.4024641
  entropy:            70.7594701
  heat_capacity:      46.7700815
  energy:             31.3456232

- temperature:       600.0000000
  free_energy:       -11.1140029
  entropy:            71.5463619
  heat_capacity:      46.8673634
  energy:             31.8138142

- temperature:       610.0000000
  free_energy:       -11.8333532
  entropy:            72.3218181
  heat_capacity:      46.9602476
  energy:             32.2829558

- temperature:       620.0000000
  free_energy:       -12.5604022
  entropy:            73.0861412
  heat_capacity:      47.0489900
  energy:             32.7530054

- temperature:       630.0000000
  free_energy:       -13.2950399
  entropy:            73.8396231
  heat_capacity:      47.1338284
  energy:             33.2239226

- temperature:       640.0000000
  free_energy:       -14.0371594
  entropy:            74.5825455
  heat_capacity:      47.2149842
  energy:             33.6956697

- temperature:       650.0000000
  free_energy:       -14.7866565
  entropy:            75.3151804
  heat_capacity:      47.2926637
  energy:             34.1682107

- temperature:       660.0000000
  free_energy:       -15.5434296
  entropy:            76.0377904
  heat_capacity:      47.3670591
  energy:             34.6415120

- temperature:       670.0000000
  free_energy:       -16.3073798
  entropy:            76.7506289
  heat_capacity:      47.4383498
  energy:             35.1155416

- temperature:       680.0000000
  free_energy:       -17.0784105
  entropy:            77.4539407
  heat_capacity:      47.5067035
  energy:             35.5902692

- temperature:       690.0000000
  free_energy:       -17.8564276
  entropy:            78.1479623
  heat_capacity:      47.5722766
  energy:             36.0656664

- temperature:       700.0000000
  free_energy:       -18.6413395
  entropy:            78.8329221
  heat_capacity:      47.6352157
  energy:             36.5417060

- temperature:       710.0000000
  free_energy:       -19.4330566
  entropy:            79.5090408
  heat_capacity:      47.6956578
  energy:             37.0183624

- temperature:       720.0000000
  free_energy:       -20.2314916
  entropy:            80.1765316
  heat_capacity:      47.7537315
  energy:             37.4956112

- temperature:       730.0000000
  free_energy:       -21.0365591
  entropy:            80.8356009
  heat_capacity:      47.8095571
  energy:             37.9734295

- temperature:       740.0000000
  free_energy:       -21.8481762
  entropy:            81.4864479
  heat_capacity:      47.8632477
  energy:             38.4517953

- temperature:       750.0000000
  free_energy:       -22.6662613
  entropy:            82.1292654
  heat_capacity:      47.9149092
  energy:             38.9306877

- temperature:       760.0000000
  free_energy:       -23.4907353
  entropy:            82.7642399
  heat_capacity:      47.9646413
  energy:             39.4100870

- temperature:       770.0000000
  free_energy:       -24.3215206
  entropy:            83.3915519
  heat_capacity:      48.0125378
  energy:             39.8899744

- temperature:       780.0000000
  free_energy:       -25.1585414
  entropy:            84.0113761
  heat_capacity:      48.0586868
  energy:             40.3703319

- temperature:       790.0000000
  free_energy:       -26.0017237
  entropy:            84.6238814
  heat_capacity:      48.1031712
  energy:             40.8511426

- temperature:       800.0000000
  free_energy:       -26.8509952
  entropy:            85.2292316
  heat_capacity:      48.1460692
  energy:             41.3323901

- temperature:       810.0000000
  free_energy:       -27.7062850
  entropy:            85.8275851
  heat_capacity:      48.1874546
  energy:             41.8140589

- temperature:       820.0000000
  free_energy:       -28.5675241
  entropy:            86.4190957
  heat_capacity:      48.2273968
  energy:             42.2961344

- temperature:       830.0000000
  free_energy:       -29.4346446
  entropy:            87.0039119
  heat_capacity:      48.2659615
  energy:             42.7786023

- temperature:       840.0000000
  free_energy:       -30.3075805
  entropy:            87.5821782
  heat_capacity:      48.3032106
  energy:             43.2614492

- temperature:       850.0000000
  free_energy:       -31.1862668
  entropy:            88.1540343
  heat_capacity:      48.3392027
  energy:             43.7446623

- temperature:       860.0000000
  free_energy:       -32.0706403
  entropy:            88.7196157
  heat_capacity:      48.3739932
  energy:             44.2282293

- temperature:       870.0000000
  free_energy:       -32.9606387
  entropy:            89.2790540
  heat_capacity:      48.4076344
  energy:             44.7121383

- temperature:       880.0000000
  free_energy:       -33.8562013
  entropy:            89.8324768
  heat_capacity:      48.4401759
  energy:             45.1963783

- temperature:       890.0000000
  free_energy:       -34.7572686
  entropy:            90.3800078
  heat_capacity:      48.4716648
  energy:             45.6809383

- temperature:       900.0000000
  free_energy:       -35.6637822
  entropy:            90.9217671
  heat_capacity:      48.5021455
  energy:             46.1658082

- temperature:       910.0000000
  free_energy:       -36.5756851
  entropy:            91.4578715
  heat_capacity:      48.5316602
  energy:             46.6509780

- temperature:       920.0000000
  free_energy:       -37.4929212
  entropy:            91.9884342
  heat_capacity:      48.5602490
  energy:             47.1364383

- temperature:       930.0000000
  free_energy:       -38.4154356
  entropy:            92.5135653
  heat_capacity:      48.5879499
  energy:             47.6221800

- temperature:       940.0000000
  free_energy:       -39.3431747
  entropy:            93.0333715
  heat_capacity:      48.6147989
  energy:             48.1081945

- temperature:       950.0000000
  free_energy:       -40.2760857
  entropy:            93.5479568
  heat_capacity:      48.6408304
  energy:             48.5944733

- temperature:       960.0000000
  free_energy:       -41.2141168
  entropy:            94.0574222
  heat_capacity:      48.6660770
  energy:             49.0810085

- temperature:       970.0000000
  free_energy:       -42.1572174
  entropy:            94.5618657
  heat_capacity:      48.6905696
  energy:             49.5677923

- temperature:       980.0000000
  free_energy:       -43.1053377
  entropy:            95.0613828
  heat_capacity:      48.7143378
  energy:             50.0548175

- temperature:       990.0000000
  free_energy:       -44.0584289
  entropy:            95.5560663
  heat_capacity:      48.7374097
  energy:             50.5420768

- temperature:      1000.0000000
  free_energy:       -45.0164432
  entropy:            96.0460066
  heat_capacity:      48.7598119
  energy:             51.0295634
