nqpoint: 200    
npath: 4      
segment_nqpoint:
- 50
- 50
- 50
- 50
labels:
- [ 'G', 'X' ]
- [ 'X', 'U|K' ]
- [ 'U|K', 'G' ]
- [ 'G', 'L' ]
reciprocal_lattice:
- [  -0.18488278,   0.18488278,   0.18488278 ] # a*
- [   0.18488278,  -0.18488278,   0.18488278 ] # b*
- [   0.18488278,   0.18488278,  -0.18488278 ] # c*
natom: 2      
lattice:
- [     0.000000000100000,     2.704416287198000,     2.704416287167000 ] # a
- [     2.704416294294000,     0.000000000083000,     2.704416287184000 ] # b
- [     2.704416294256999,     2.704416287178999,     0.000000000120000 ] # c
points:
- symbol: Si # 1
  coordinates: [  0.000000000008000,  0.000000000005000,  0.000000000019000 ]
  mass: 28.085000
- symbol: Si # 2
  coordinates: [  0.249999999992000,  0.249999999994999,  0.249999999981000 ]
  mass: 28.085000

phonon:
- q-position: [    0.0000000,    0.0000000,    0.0000000 ]
  distance:    0.0000000
  band:
  - # 1
    frequency:    0.0000003574
  - # 2
    frequency:    0.0000004191
  - # 3
    frequency:    0.0000004274
  - # 4
    frequency:   15.4154181477
  - # 5
    frequency:   15.4154181477
  - # 6
    frequency:   15.4154181477

- q-position: [    0.0102041,    0.0000000,    0.0102041 ]
  distance:    0.0037731
  band:
  - # 1
    frequency:    0.1825194768
  - # 2
    frequency:    0.1825194768
  - # 3
    frequency:    0.3118548769
  - # 4
    frequency:   15.4124818222
  - # 5
    frequency:   15.4124818222
  - # 6
    frequency:   15.4144408260

- q-position: [    0.0204082,    0.0000000,    0.0204082 ]
  distance:    0.0075462
  band:
  - # 1
    frequency:    0.3647441263
  - # 2
    frequency:    0.3647441263
  - # 3
    frequency:    0.6235038030
  - # 4
    frequency:   15.4036947565
  - # 5
    frequency:   15.4036947565
  - # 6
    frequency:   15.4115059886

- q-position: [    0.0306122,    0.0000000,    0.0306122 ]
  distance:    0.0113194
  band:
  - # 1
    frequency:    0.5463771912
  - # 2
    frequency:    0.5463771912
  - # 3
    frequency:    0.9347413929
  - # 4
    frequency:   15.3891225972
  - # 5
    frequency:   15.3891225972
  - # 6
    frequency:   15.4066050407

- q-position: [    0.0408163,    0.0000000,    0.0408163 ]
  distance:    0.0150925
  band:
  - # 1
    frequency:    0.7271181028
  - # 2
    frequency:    0.7271181028
  - # 3
    frequency:    1.2453633891
  - # 4
    frequency:   15.3688744691
  - # 5
    frequency:   15.3688744691
  - # 6
    frequency:   15.3997237304

- q-position: [    0.0510204,    0.0000000,    0.0510204 ]
  distance:    0.0188656
  band:
  - # 1
    frequency:    0.9066606953
  - # 2
    frequency:    0.9066606954
  - # 3
    frequency:    1.5551672172
  - # 4
    frequency:   15.3431025377
  - # 5
    frequency:   15.3431025377
  - # 6
    frequency:   15.3908422571

- q-position: [    0.0612245,    0.0000000,    0.0612245 ]
  distance:    0.0226387
  band:
  - # 1
    frequency:    1.0846915683
  - # 2
    frequency:    1.0846915684
  - # 3
    frequency:    1.8639525315
  - # 4
    frequency:   15.3120013778
  - # 5
    frequency:   15.3120013778
  - # 6
    frequency:   15.3799354210

- q-position: [    0.0714286,    0.0000000,    0.0714286 ]
  distance:    0.0264118
  band:
  - # 1
    frequency:    1.2608886460
  - # 2
    frequency:    1.2608886460
  - # 3
    frequency:    2.1715217459
  - # 4
    frequency:   15.2758071321
  - # 5
    frequency:   15.2758071321
  - # 6
    frequency:   15.3669728120

- q-position: [    0.0816327,    0.0000000,    0.0816327 ]
  distance:    0.0301849
  band:
  - # 1
    frequency:    1.4349199895
  - # 2
    frequency:    1.4349199896
  - # 3
    frequency:    2.4776805501
  - # 4
    frequency:   15.2347964347
  - # 5
    frequency:   15.2347964348
  - # 6
    frequency:   15.3519190357

- q-position: [    0.0918367,    0.0000000,    0.0918367 ]
  distance:    0.0339581
  band:
  - # 1
    frequency:    1.6064429184
  - # 2
    frequency:    1.6064429185
  - # 3
    frequency:    2.7822384046
  - # 4
    frequency:   15.1892850708
  - # 5
    frequency:   15.1892850708
  - # 6
    frequency:   15.3347339731

- q-position: [    0.1020408,    0.0000000,    0.1020408 ]
  distance:    0.0377312
  band:
  - # 1
    frequency:    1.7751035002
  - # 2
    frequency:    1.7751035003
  - # 3
    frequency:    3.0850090138
  - # 4
    frequency:   15.1396263361
  - # 5
    frequency:   15.1396263361
  - # 6
    frequency:   15.3153730711

- q-position: [    0.1122449,    0.0000000,    0.1122449 ]
  distance:    0.0415043
  band:
  - # 1
    frequency:    1.9405364719
  - # 2
    frequency:    1.9405364719
  - # 3
    frequency:    3.3858107737
  - # 4
    frequency:   15.0862090569
  - # 5
    frequency:   15.0862090569
  - # 6
    frequency:   15.2937876598

- q-position: [    0.1224490,    0.0000000,    0.1224490 ]
  distance:    0.0452774
  band:
  - # 1
    frequency:    2.1023656582
  - # 2
    frequency:    2.1023656583
  - # 3
    frequency:    3.6844671920
  - # 4
    frequency:   15.0294552207
  - # 5
    frequency:   15.0294552207
  - # 6
    frequency:   15.2699252933

- q-position: [    0.1326531,    0.0000000,    0.1326531 ]
  distance:    0.0490505
  band:
  - # 1
    frequency:    2.2602049546
  - # 2
    frequency:    2.2602049547
  - # 3
    frequency:    3.9808072776
  - # 4
    frequency:   14.9698171699
  - # 5
    frequency:   14.9698171699
  - # 6
    frequency:   15.2437301085

- q-position: [    0.1428571,    0.0000000,    0.1428571 ]
  distance:    0.0528237
  band:
  - # 1
    frequency:    2.4136599414
  - # 2
    frequency:    2.4136599414
  - # 3
    frequency:    4.2746658986
  - # 4
    frequency:   14.9077743035
  - # 5
    frequency:   14.9077743035
  - # 6
    frequency:   15.2151431995

- q-position: [    0.1530612,    0.0000000,    0.1530612 ]
  distance:    0.0565968
  band:
  - # 1
    frequency:    2.5623301949
  - # 2
    frequency:    2.5623301950
  - # 3
    frequency:    4.5658841051
  - # 4
    frequency:   14.8438292322
  - # 5
    frequency:   14.8438292322
  - # 6
    frequency:   15.1841030012

- q-position: [    0.1632653,    0.0000000,    0.1632653 ]
  distance:    0.0603699
  band:
  - # 1
    frequency:    2.7058123544
  - # 2
    frequency:    2.7058123545
  - # 3
    frequency:    4.8543094176
  - # 4
    frequency:   14.7785033402
  - # 5
    frequency:   14.7785033402
  - # 6
    frequency:   15.1505456789

- q-position: [    0.1734694,    0.0000000,    0.1734694 ]
  distance:    0.0641430
  band:
  - # 1
    frequency:    2.8437039916
  - # 2
    frequency:    2.8437039916
  - # 3
    frequency:    5.1397960771
  - # 4
    frequency:   14.7123317103
  - # 5
    frequency:   14.7123317104
  - # 6
    frequency:   15.1144055193

- q-position: [    0.1836735,    0.0000000,    0.1836735 ]
  distance:    0.0679161
  band:
  - # 1
    frequency:    2.9756083129
  - # 2
    frequency:    2.9756083129
  - # 3
    frequency:    5.4222052587
  - # 4
    frequency:   14.6458573894
  - # 5
    frequency:   14.6458573894
  - # 6
    frequency:   15.0756153183

- q-position: [    0.1938776,    0.0000000,    0.1938776 ]
  distance:    0.0716892
  band:
  - # 1
    frequency:    3.1011396992
  - # 2
    frequency:    3.1011396993
  - # 3
    frequency:    5.7014052451
  - # 4
    frequency:   14.5796249902
  - # 5
    frequency:   14.5796249902
  - # 6
    frequency:   15.0341067621

- q-position: [    0.2040816,    0.0000000,    0.2040816 ]
  distance:    0.0754624
  band:
  - # 1
    frequency:    3.2199300528
  - # 2
    frequency:    3.2199300529
  - # 3
    frequency:    5.9772715620
  - # 4
    frequency:   14.5141736610
  - # 5
    frequency:   14.5141736610
  - # 6
    frequency:   14.9898107971

- q-position: [    0.2142857,    0.0000000,    0.2142857 ]
  distance:    0.0792355
  band:
  - # 1
    frequency:    3.3316358795
  - # 2
    frequency:    3.3316358795
  - # 3
    frequency:    6.2496870736
  - # 4
    frequency:   14.4500294917
  - # 5
    frequency:   14.4500294917
  - # 6
    frequency:   14.9426579853

- q-position: [    0.2244898,    0.0000000,    0.2244898 ]
  distance:    0.0830086
  band:
  - # 1
    frequency:    3.4359459820
  - # 2
    frequency:    3.4359459821
  - # 3
    frequency:    6.5185420402
  - # 4
    frequency:   14.3876974737
  - # 5
    frequency:   14.3876974737
  - # 6
    frequency:   14.8925788426

- q-position: [    0.2346939,    0.0000000,    0.2346939 ]
  distance:    0.0867817
  band:
  - # 1
    frequency:    3.5325895862
  - # 2
    frequency:    3.5325895863
  - # 3
    frequency:    6.7837341364
  - # 4
    frequency:   14.3276531861
  - # 5
    frequency:   14.3276531861
  - # 6
    frequency:   14.8395041559

- q-position: [    0.2448980,    0.0000000,    0.2448980 ]
  distance:    0.0905548
  band:
  - # 1
    frequency:    3.6213446596
  - # 2
    frequency:    3.6213446597
  - # 3
    frequency:    7.0451684327
  - # 4
    frequency:   14.2703344322
  - # 5
    frequency:   14.2703344322
  - # 6
    frequency:   14.7833652774

- q-position: [    0.2551020,    0.0000000,    0.2551020 ]
  distance:    0.0943279
  band:
  - # 1
    frequency:    3.7020461292
  - # 2
    frequency:    3.7020461292
  - # 3
    frequency:    7.3027573406
  - # 4
    frequency:   14.2161331060
  - # 5
    frequency:   14.2161331060
  - # 6
    frequency:   14.7240943947

- q-position: [    0.2653061,    0.0000000,    0.2653061 ]
  distance:    0.0981011
  band:
  - # 1
    frequency:    3.7745936574
  - # 2
    frequency:    3.7745936575
  - # 3
    frequency:    7.5564205228
  - # 4
    frequency:   14.1653876061
  - # 5
    frequency:   14.1653876062
  - # 6
    frequency:   14.6616247731

- q-position: [    0.2755102,    0.0000000,    0.2755102 ]
  distance:    0.1018742
  band:
  - # 1
    frequency:    3.8389586068
  - # 2
    frequency:    3.8389586069
  - # 3
    frequency:    7.8060847714
  - # 4
    frequency:   14.1183761401
  - # 5
    frequency:   14.1183761401
  - # 6
    frequency:   14.5958909712

- q-position: [    0.2857143,    0.0000000,    0.2857143 ]
  distance:    0.1056473
  band:
  - # 1
    frequency:    3.8951898154
  - # 2
    frequency:    3.8951898155
  - # 3
    frequency:    8.0516838540
  - # 4
    frequency:   14.0753112624
  - # 5
    frequency:   14.0753112624
  - # 6
    frequency:   14.5268290278

- q-position: [    0.2959184,    0.0000000,    0.2959184 ]
  distance:    0.1094204
  band:
  - # 1
    frequency:    3.9434178267
  - # 2
    frequency:    3.9434178268
  - # 3
    frequency:    8.2931583331
  - # 4
    frequency:   14.0363359614
  - # 5
    frequency:   14.0363359615
  - # 6
    frequency:   14.4543766201

- q-position: [    0.3061224,    0.0000000,    0.3061224 ]
  distance:    0.1131935
  band:
  - # 1
    frequency:    3.9838572671
  - # 2
    frequency:    3.9838572672
  - # 3
    frequency:    8.5304553583
  - # 4
    frequency:   14.0015215540
  - # 5
    frequency:   14.0015215540
  - # 6
    frequency:   14.3784731947

- q-position: [    0.3163265,    0.0000000,    0.3163265 ]
  distance:    0.1169667
  band:
  - # 1
    frequency:    4.0168071371
  - # 2
    frequency:    4.0168071372
  - # 3
    frequency:    8.7635284363
  - # 4
    frequency:   13.9708675612
  - # 5
    frequency:   13.9708675612
  - # 6
    frequency:   14.2990600691

- q-position: [    0.3265306,    0.0000000,    0.3265306 ]
  distance:    0.1207398
  band:
  - # 1
    frequency:    4.0426488800
  - # 2
    frequency:    4.0426488801
  - # 3
    frequency:    8.9923371804
  - # 4
    frequency:   13.9443036383
  - # 5
    frequency:   13.9443036383
  - # 6
    frequency:   14.2160805091

- q-position: [    0.3367347,    0.0000000,    0.3367347 ]
  distance:    0.1245129
  band:
  - # 1
    frequency:    4.0618421950
  - # 2
    frequency:    4.0618421951
  - # 3
    frequency:    9.2168470443
  - # 4
    frequency:   13.9216935138
  - # 5
    frequency:   13.9216935138
  - # 6
    frequency:   14.1294797791

- q-position: [    0.3469388,    0.0000000,    0.3469388 ]
  distance:    0.1282860
  band:
  - # 1
    frequency:    4.0749186687
  - # 2
    frequency:    4.0749186688
  - # 3
    frequency:    9.4370290407
  - # 4
    frequency:   13.9028407850
  - # 5
    frequency:   13.9028407850
  - # 6
    frequency:   14.0392051712

- q-position: [    0.3571429,    0.0000000,    0.3571429 ]
  distance:    0.1320591
  band:
  - # 1
    frequency:    4.0824733895
  - # 2
    frequency:    4.0824733896
  - # 3
    frequency:    9.6528594509
  - # 4
    frequency:   13.8874963166
  - # 5
    frequency:   13.8874963166
  - # 6
    frequency:   13.9452060114

- q-position: [    0.3673469,    0.0000000,    0.3673469 ]
  distance:    0.1358322
  band:
  - # 1
    frequency:    4.0851547865
  - # 2
    frequency:    4.0851547866
  - # 3
    frequency:    9.8643195273
  - # 4
    frequency:   13.8474336495
  - # 5
    frequency:   13.8753669158
  - # 6
    frequency:   13.8753669159

- q-position: [    0.3775510,    0.0000000,    0.3775510 ]
  distance:    0.1396054
  band:
  - # 1
    frequency:    4.0836529818
  - # 2
    frequency:    4.0836529819
  - # 3
    frequency:   10.0713951923
  - # 4
    frequency:   13.7458414313
  - # 5
    frequency:   13.8661249113
  - # 6
    frequency:   13.8661249113

- q-position: [    0.3877551,    0.0000000,    0.3877551 ]
  distance:    0.1433785
  band:
  - # 1
    frequency:    4.0786869708
  - # 2
    frequency:    4.0786869708
  - # 3
    frequency:   10.2740767370
  - # 4
    frequency:   13.6403846593
  - # 5
    frequency:   13.8594182501
  - # 6
    frequency:   13.8594182502

- q-position: [    0.3979592,    0.0000000,    0.3979592 ]
  distance:    0.1471516
  band:
  - # 1
    frequency:    4.0709909528
  - # 2
    frequency:    4.0709909528
  - # 3
    frequency:   10.4723585234
  - # 4
    frequency:   13.5310205428
  - # 5
    frequency:   13.8548807412
  - # 6
    frequency:   13.8548807412

- q-position: [    0.4081633,    0.0000000,    0.4081633 ]
  distance:    0.1509247
  band:
  - # 1
    frequency:    4.0613001231
  - # 2
    frequency:    4.0613001232
  - # 3
    frequency:   10.6662386928
  - # 4
    frequency:   13.4177081417
  - # 5
    frequency:   13.8521421120
  - # 6
    frequency:   13.8521421120

- q-position: [    0.4183673,    0.0000000,    0.4183673 ]
  distance:    0.1546978
  band:
  - # 1
    frequency:    4.0503362274
  - # 2
    frequency:    4.0503362274
  - # 3
    frequency:   10.8557188833
  - # 4
    frequency:   13.3004083070
  - # 5
    frequency:   13.8508375990
  - # 6
    frequency:   13.8508375991

- q-position: [    0.4285714,    0.0000000,    0.4285714 ]
  distance:    0.1584710
  band:
  - # 1
    frequency:    4.0387931644
  - # 2
    frequency:    4.0387931644
  - # 3
    frequency:   11.0408039596
  - # 4
    frequency:   13.1790836209
  - # 5
    frequency:   13.8506168545
  - # 6
    frequency:   13.8506168545

- q-position: [    0.4387755,    0.0000000,    0.4387755 ]
  distance:    0.1622441
  band:
  - # 1
    frequency:    4.0273229213
  - # 2
    frequency:    4.0273229214
  - # 3
    frequency:   11.2215017576
  - # 4
    frequency:   13.0536983396
  - # 5
    frequency:   13.8511520131
  - # 6
    frequency:   13.8511520131

- q-position: [    0.4489796,    0.0000000,    0.4489796 ]
  distance:    0.1660172
  band:
  - # 1
    frequency:    4.0165221259
  - # 2
    frequency:    4.0165221259
  - # 3
    frequency:   11.3978228453
  - # 4
    frequency:   12.9242183428
  - # 5
    frequency:   13.8521448212
  - # 6
    frequency:   13.8521448212

- q-position: [    0.4591837,    0.0000000,    0.4591837 ]
  distance:    0.1697903
  band:
  - # 1
    frequency:    4.0069195082
  - # 2
    frequency:    4.0069195082
  - # 3
    frequency:   11.5697803035
  - # 4
    frequency:   12.7906110915
  - # 5
    frequency:   13.8533327764
  - # 6
    frequency:   13.8533327764

- q-position: [    0.4693878,    0.0000000,    0.4693878 ]
  distance:    0.1735634
  band:
  - # 1
    frequency:    3.9989645768
  - # 2
    frequency:    3.9989645768
  - # 3
    frequency:   11.7373895262
  - # 4
    frequency:   12.6528455985
  - # 5
    frequency:   13.8544942654
  - # 6
    frequency:   13.8544942654

- q-position: [    0.4795918,    0.0000000,    0.4795918 ]
  distance:    0.1773365
  band:
  - # 1
    frequency:    3.9930178112
  - # 2
    frequency:    3.9930178113
  - # 3
    frequency:   11.9006680432
  - # 4
    frequency:   12.5108924121
  - # 5
    frequency:   13.8554527094
  - # 6
    frequency:   13.8554527094

- q-position: [    0.4897959,    0.0000000,    0.4897959 ]
  distance:    0.1811097
  band:
  - # 1
    frequency:    3.9893426663
  - # 2
    frequency:    3.9893426663
  - # 3
    frequency:   12.0596353660
  - # 4
    frequency:   12.3647236174
  - # 5
    frequency:   13.8560797436
  - # 6
    frequency:   13.8560797436

- q-position: [    0.5000000,    0.0000000,    0.5000000 ]
  distance:    0.1848828
  band:
  - # 1
    frequency:    3.9880996473
  - # 2
    frequency:    3.9880996473
  - # 3
    frequency:   12.2143128561
  - # 4
    frequency:   12.2143128561
  - # 5
    frequency:   13.8562974605
  - # 6
    frequency:   13.8562974605

- q-position: [    0.5000000,    0.0000000,    0.5000000 ]
  distance:    0.1848828
  band:
  - # 1
    frequency:    3.9880996473
  - # 2
    frequency:    3.9880996473
  - # 3
    frequency:   12.2143128561
  - # 4
    frequency:   12.2143128561
  - # 5
    frequency:   13.8562974605
  - # 6
    frequency:   13.8562974605

- q-position: [    0.5025510,    0.0051020,    0.5025510 ]
  distance:    0.1862168
  band:
  - # 1
    frequency:    3.9882884656
  - # 2
    frequency:    3.9896839297
  - # 3
    frequency:   12.2134410319
  - # 4
    frequency:   12.2135646589
  - # 5
    frequency:   13.8562486561
  - # 6
    frequency:   13.8567117145

- q-position: [    0.5051020,    0.0102041,    0.5051020 ]
  distance:    0.1875508
  band:
  - # 1
    frequency:    3.9888544308
  - # 2
    frequency:    3.9944308085
  - # 3
    frequency:   12.2108289610
  - # 4
    frequency:   12.2113215606
  - # 5
    frequency:   13.8561024213
  - # 6
    frequency:   13.8579515608

- q-position: [    0.5076531,    0.0153061,    0.5076531 ]
  distance:    0.1888848
  band:
  - # 1
    frequency:    3.9897960753
  - # 2
    frequency:    4.0023224460
  - # 3
    frequency:   12.2064867740
  - # 4
    frequency:   12.2075880423
  - # 5
    frequency:   13.8558592915
  - # 6
    frequency:   13.8600083257

- q-position: [    0.5102041,    0.0204082,    0.5102041 ]
  distance:    0.1902188
  band:
  - # 1
    frequency:    3.9911109589
  - # 2
    frequency:    4.0133293359
  - # 3
    frequency:   12.2004311088
  - # 4
    frequency:   12.2023715738
  - # 5
    frequency:   13.8555201580
  - # 6
    frequency:   13.8628677931

- q-position: [    0.5127551,    0.0255102,    0.5127551 ]
  distance:    0.1915528
  band:
  - # 1
    frequency:    3.9927956766
  - # 2
    frequency:    4.0274106301
  - # 3
    frequency:   12.1926847554
  - # 4
    frequency:   12.1956826162
  - # 5
    frequency:   13.8550862671
  - # 6
    frequency:   13.8665105521

- q-position: [    0.5153061,    0.0306122,    0.5153061 ]
  distance:    0.1928868
  band:
  - # 1
    frequency:    3.9948458703
  - # 2
    frequency:    4.0445145828
  - # 3
    frequency:   12.1832761838
  - # 4
    frequency:   12.1875346253
  - # 5
    frequency:   13.8545592183
  - # 6
    frequency:   13.8709124562

- q-position: [    0.5178571,    0.0357143,    0.5178571 ]
  distance:    0.1942208
  band:
  - # 1
    frequency:    3.9972562436
  - # 2
    frequency:    4.0645790976
  - # 3
    frequency:   12.1722389796
  - # 4
    frequency:   12.1779440555
  - # 5
    frequency:   13.8539409621
  - # 6
    frequency:   13.8760451726

- q-position: [    0.5204082,    0.0408163,    0.5204082 ]
  distance:    0.1955548
  band:
  - # 1
    frequency:    4.0000205791
  - # 2
    frequency:    4.0875323631
  - # 3
    frequency:   12.1596112122
  - # 4
    frequency:   12.1669303658
  - # 5
    frequency:   13.8532337975
  - # 6
    frequency:   13.8818767952

- q-position: [    0.5229592,    0.0459184,    0.5229592 ]
  distance:    0.1968888
  band:
  - # 1
    frequency:    4.0031317589
  - # 2
    frequency:    4.1132935575
  - # 3
    frequency:   12.1454347632
  - # 4
    frequency:   12.1545160254
  - # 5
    frequency:   13.8524403687
  - # 6
    frequency:   13.8883724943

- q-position: [    0.5255102,    0.0510204,    0.5255102 ]
  distance:    0.1982228
  band:
  - # 1
    frequency:    4.0065817886
  - # 2
    frequency:    4.1417736059
  - # 3
    frequency:   12.1297546409
  - # 4
    frequency:   12.1407265218
  - # 5
    frequency:   13.8515636616
  - # 6
    frequency:   13.8954951771

- q-position: [    0.5280612,    0.0561224,    0.5280612 ]
  distance:    0.1995568
  band:
  - # 1
    frequency:    4.0103618224
  - # 2
    frequency:    4.1728759699
  - # 3
    frequency:   12.1126183031
  - # 4
    frequency:   12.1255903687
  - # 5
    frequency:   13.8506069999
  - # 6
    frequency:   13.9032061364

- q-position: [    0.5306122,    0.0612245,    0.5306122 ]
  distance:    0.2008908
  band:
  - # 1
    frequency:    4.0144621924
  - # 2
    frequency:    4.2064974523
  - # 3
    frequency:   12.0940750093
  - # 4
    frequency:   12.1091391160
  - # 5
    frequency:   13.8495740400
  - # 6
    frequency:   13.9114656673

- q-position: [    0.5331633,    0.0663265,    0.5331633 ]
  distance:    0.2022248
  band:
  - # 1
    frequency:    4.0188724387
  - # 2
    frequency:    4.2425289993
  - # 3
    frequency:   12.0741752169
  - # 4
    frequency:   12.0914073603
  - # 5
    frequency:   13.8484687669
  - # 6
    frequency:   13.9202336371

- q-position: [    0.5357143,    0.0714286,    0.5357143 ]
  distance:    0.2035588
  band:
  - # 1
    frequency:    4.0235813427
  - # 2
    frequency:    4.2808564859
  - # 3
    frequency:   12.0529700317
  - # 4
    frequency:   12.0724327564
  - # 5
    frequency:   13.8472954875
  - # 6
    frequency:   13.9294699979

- q-position: [    0.5382653,    0.0765306,    0.5382653 ]
  distance:    0.2048928
  band:
  - # 1
    frequency:    4.0285769617
  - # 2
    frequency:    4.3213614699
  - # 3
    frequency:   12.0305107211
  - # 4
    frequency:   12.0522560305
  - # 5
    frequency:   13.8460588258
  - # 6
    frequency:   13.9391352342

- q-position: [    0.5408163,    0.0816327,    0.5408163 ]
  distance:    0.2062268
  band:
  - # 1
    frequency:    4.0338466653
  - # 2
    frequency:    4.3639219051
  - # 3
    frequency:   12.0068482908
  - # 4
    frequency:   12.0309209935
  - # 5
    frequency:   13.8447637156
  - # 6
    frequency:   13.9491907441

- q-position: [    0.5433673,    0.0867347,    0.5433673 ]
  distance:    0.2075608
  band:
  - # 1
    frequency:    4.0393771732
  - # 2
    frequency:    4.4084128036
  - # 3
    frequency:   11.9820331269
  - # 4
    frequency:   12.0084745557
  - # 5
    frequency:   13.8434153939
  - # 6
    frequency:   13.9595991536

- q-position: [    0.5459184,    0.0918367,    0.5459184 ]
  distance:    0.2088948
  band:
  - # 1
    frequency:    4.0451545951
  - # 2
    frequency:    4.4547068418
  - # 3
    frequency:   11.9561146996
  - # 4
    frequency:   11.9849667422
  - # 5
    frequency:   13.8420193934
  - # 6
    frequency:   13.9703245661

- q-position: [    0.5484694,    0.0969388,    0.5484694 ]
  distance:    0.2102288
  band:
  - # 1
    frequency:    4.0511644699
  - # 2
    frequency:    4.5026749062
  - # 3
    frequency:   11.9291413248
  - # 4
    frequency:   11.9604507086
  - # 5
    frequency:   13.8405815346
  - # 6
    frequency:   13.9813327533

- q-position: [    0.5510204,    0.1020408,    0.5510204 ]
  distance:    0.2115628
  band:
  - # 1
    frequency:    4.0573918080
  - # 2
    frequency:    4.5521865760
  - # 3
    frequency:   11.9011599780
  - # 4
    frequency:   11.9349827569
  - # 5
    frequency:   13.8391079178
  - # 6
    frequency:   13.9925912909

- q-position: [    0.5535714,    0.1071429,    0.5535714 ]
  distance:    0.2128968
  band:
  - # 1
    frequency:    4.0638211320
  - # 2
    frequency:    4.6031105428
  - # 3
    frequency:   11.8722161545
  - # 4
    frequency:   11.9086223511
  - # 5
    frequency:   13.8376049134
  - # 6
    frequency:   14.0040696473

- q-position: [    0.5561224,    0.1122449,    0.5561224 ]
  distance:    0.2142307
  band:
  - # 1
    frequency:    4.0704365198
  - # 2
    frequency:    4.6553149688
  - # 3
    frequency:   11.8423537698
  - # 4
    frequency:   11.8814321328
  - # 5
    frequency:   13.8360791538
  - # 6
    frequency:   14.0157392302

- q-position: [    0.5586735,    0.1173469,    0.5586735 ]
  distance:    0.2155647
  band:
  - # 1
    frequency:    4.0772216465
  - # 2
    frequency:    4.7086677860
  - # 3
    frequency:   11.8116150944
  - # 4
    frequency:   11.8534779345
  - # 5
    frequency:   13.8345375226
  - # 6
    frequency:   14.0275733980

- q-position: [    0.5612245,    0.1224490,    0.5612245 ]
  distance:    0.2168987
  band:
  - # 1
    frequency:    4.0841598271
  - # 2
    frequency:    4.7630369391
  - # 3
    frequency:   11.7800407170
  - # 4
    frequency:   11.8248287915
  - # 5
    frequency:   13.8329871449
  - # 6
    frequency:   14.0395474418

- q-position: [    0.5637755,    0.1275510,    0.5637755 ]
  distance:    0.2182327
  band:
  - # 1
    frequency:    4.0912340589
  - # 2
    frequency:    4.8182905782
  - # 3
    frequency:   11.7476695307
  - # 4
    frequency:   11.7955569511
  - # 5
    frequency:   13.8314353768
  - # 6
    frequency:   14.0516385437

- q-position: [    0.5663265,    0.1326531,    0.5663265 ]
  distance:    0.2195667
  band:
  - # 1
    frequency:    4.0984270635
  - # 2
    frequency:    4.8742972052
  - # 3
    frequency:   11.7145387378
  - # 4
    frequency:   11.7657378762
  - # 5
    frequency:   13.8298897939
  - # 6
    frequency:   14.0638257156

- q-position: [    0.5688776,    0.1377551,    0.5688776 ]
  distance:    0.2209007
  band:
  - # 1
    frequency:    4.1057213285
  - # 2
    frequency:    4.9309257799
  - # 3
    frequency:   11.6806838701
  - # 4
    frequency:   11.7354502455
  - # 5
    frequency:   13.8283581800
  - # 6
    frequency:   14.0760897234

- q-position: [    0.5714286,    0.1428571,    0.5714286 ]
  distance:    0.2222347
  band:
  - # 1
    frequency:    4.1130991485
  - # 2
    frequency:    4.9880457919
  - # 3
    frequency:   11.6461388189
  - # 4
    frequency:   11.7047759443
  - # 5
    frequency:   13.8268485152
  - # 6
    frequency:   14.0884130000

- q-position: [    0.5739796,    0.1479592,    0.5739796 ]
  distance:    0.2235687
  band:
  - # 1
    frequency:    4.1205426653
  - # 2
    frequency:    5.0455273045
  - # 3
    frequency:   11.6109358746
  - # 4
    frequency:   11.6738000480
  - # 5
    frequency:   13.8253689633
  - # 6
    frequency:   14.1007795502

- q-position: [    0.5765306,    0.1530612,    0.5765306 ]
  distance:    0.2249027
  band:
  - # 1
    frequency:    4.1280339071
  - # 2
    frequency:    5.1032409769
  - # 3
    frequency:   11.5751057713
  - # 4
    frequency:   11.6426107927
  - # 5
    frequency:   13.8239278595
  - # 6
    frequency:   14.1131748507

- q-position: [    0.5790816,    0.1581633,    0.5790816 ]
  distance:    0.2262367
  band:
  - # 1
    frequency:    4.1355548273
  - # 2
    frequency:    5.1610580718
  - # 3
    frequency:   11.5386777354
  - # 4
    frequency:   11.6112995325
  - # 5
    frequency:   13.8225336965
  - # 6
    frequency:   14.1255857461

- q-position: [    0.5816327,    0.1632653,    0.5816327 ]
  distance:    0.2275707
  band:
  - # 1
    frequency:    4.1430873414
  - # 2
    frequency:    5.2188504548
  - # 3
    frequency:   11.5016795373
  - # 4
    frequency:   11.5799606792
  - # 5
    frequency:   13.8211951116
  - # 6
    frequency:   14.1380003441

- q-position: [    0.5841837,    0.1683673,    0.5841837 ]
  distance:    0.2289047
  band:
  - # 1
    frequency:    4.1506133630
  - # 2
    frequency:    5.2764905934
  - # 3
    frequency:   11.4641375428
  - # 4
    frequency:   11.5486916219
  - # 5
    frequency:   13.8199208723
  - # 6
    frequency:   14.1504079109

- q-position: [    0.5867347,    0.1734694,    0.5867347 ]
  distance:    0.2302387
  band:
  - # 1
    frequency:    4.1581148391
  - # 2
    frequency:    5.3338515607
  - # 3
    frequency:   11.4260767663
  - # 4
    frequency:   11.5175926208
  - # 5
    frequency:   13.8187198625
  - # 6
    frequency:   14.1627987669

- q-position: [    0.5892857,    0.1785714,    0.5892857 ]
  distance:    0.2315727
  band:
  - # 1
    frequency:    4.1655737829
  - # 2
    frequency:    5.3908070538
  - # 3
    frequency:   11.3875209225
  - # 4
    frequency:   11.4867666739
  - # 5
    frequency:   13.8176010673
  - # 6
    frequency:   14.1751641858

- q-position: [    0.5918367,    0.1836735,    0.5918367 ]
  distance:    0.2329067
  band:
  - # 1
    frequency:    4.1729723064
  - # 2
    frequency:    5.4472314323
  - # 3
    frequency:   11.3484924774
  - # 4
    frequency:   11.4563193483
  - # 5
    frequency:   13.8165735586
  - # 6
    frequency:   14.1874962954

- q-position: [    0.5943878,    0.1887755,    0.5943878 ]
  distance:    0.2342407
  band:
  - # 1
    frequency:    4.1802926504
  - # 2
    frequency:    5.5029997840
  - # 3
    frequency:   11.3090126983
  - # 4
    frequency:   11.4263585745
  - # 5
    frequency:   13.8156464793
  - # 6
    frequency:   14.1997879821

- q-position: [    0.5969388,    0.1938776,    0.5969388 ]
  distance:    0.2355747
  band:
  - # 1
    frequency:    4.1875172141
  - # 2
    frequency:    5.5579880268
  - # 3
    frequency:   11.2691017016
  - # 4
    frequency:   11.3969943955
  - # 5
    frequency:   13.8148290284
  - # 6
    frequency:   14.2120328001

- q-position: [    0.5994898,    0.1989796,    0.5994898 ]