64   
1    

1    
  0.0100000000000000   0.0000000000001183   0.0000000000002533
  -0.1341990266   -0.0000000075   -0.0000000133
  -0.0042836970   -0.0009501590   -0.0009501622
  -0.0039960689   -0.0000000032    0.0000000232
  -0.0042836859    0.0009501587    0.0009501542
   0.0018533424    0.0009990403    0.0018111911
   0.0003412998   -0.0006176545    0.0000756211
   0.0003415033   -0.0000757962    0.0006176859
   0.0018533416   -0.0018111868   -0.0009990507
   0.0000461464    0.0000000039   -0.0000000190
  -0.0000369513    0.0000760121   -0.0000759911
   0.0000461160   -0.0000000273    0.0000000098
  -0.0000371768   -0.0000760111    0.0000759990
   0.0018261491   -0.0009966889    0.0017941581
   0.0018261678   -0.0017941801    0.0009966860
   0.0003417235    0.0000759556    0.0006190651
   0.0003418501   -0.0006190043   -0.0000760714
   0.0018533464    0.0018111876    0.0009990400
   0.0003415201    0.0000757825   -0.0006176714
   0.0003416587    0.0006176909   -0.0000756281
   0.0018533400   -0.0009990455   -0.0018111995
  -0.0000404410   -0.0000762618   -0.0000762135
   0.0002235845   -0.0000000034    0.0000000035
  -0.0000406517    0.0000762589    0.0000762247
   0.0001697338   -0.0000000126   -0.0000000095
   0.0003415033    0.0006190413    0.0000760322
   0.0003417091   -0.0000759871   -0.0006190320
   0.0018261651    0.0017941694   -0.0009966977
   0.0018261480    0.0009966975   -0.0017941507
  -0.0042723448    0.0009377120   -0.0009377485
   0.0004940184   -0.0000000238    0.0000000174
  -0.0042723360   -0.0009377185    0.0009377359
   0.0004940279    0.0000000163   -0.0000000046
   0.0330722814    0.0235237211    0.0235237279
   0.0021083189   -0.0002620724   -0.0002620704
   0.0021082839    0.0002620966    0.0002620897
   0.0330722846   -0.0235237274   -0.0235237235
   0.0002157341   -0.0002562178    0.0002099027
  -0.0001787752    0.0002738938   -0.0002739307
   0.0002157049   -0.0002098730    0.0002562401
  -0.0000628665    0.0003395699   -0.0003395608
   0.0002102502    0.0002497124    0.0002059965
   0.0002102151   -0.0002060080   -0.0002497504
   0.0002102121    0.0002060201    0.0002497437
   0.0002102470   -0.0002497178   -0.0002060017
   0.0327557857   -0.0229036229    0.0229036132
  -0.0005314980    0.0003329628   -0.0004084706
   0.0020995693   -0.0002612436    0.0002612676
  -0.0005315052    0.0004084838   -0.0003329738
   0.0002156868    0.0002098641   -0.0002562591
  -0.0001787704   -0.0002739071    0.0002739334
   0.0002157376    0.0002562258   -0.0002098973
  -0.0000628838   -0.0003395654    0.0003395551
  -0.0001784492   -0.0002756242   -0.0002756174
  -0.0001784487    0.0002756470    0.0002756494
  -0.0000616968   -0.0003408676   -0.0003408695
  -0.0000616928    0.0003408632    0.0003408625
   0.0020995835    0.0002612380   -0.0002612599
  -0.0005315055   -0.0003329596    0.0004084666
   0.0327557814    0.0229036202   -0.0229036146
  -0.0005314979   -0.0004084688    0.0003329742
  -0.0005370198   -0.0003405535   -0.0004041025
  -0.0005370313    0.0003405521    0.0004041045
  -0.0005370265   -0.0004040912   -0.0003405327
  -0.0005370240    0.0004040940    0.0003405238
