   2   64
1 1
    13.419902663064095    -0.000000000000000    -0.000000000000000
     0.000000000000000    13.419902663064097     0.000000000000001
     0.000000000000000    -0.000000000000001    13.419902663064097
1 2
     0.427801593171264     0.094394362424324     0.094394362429065
    -0.099786831359479    -0.183975004868176    -0.180267792058496
    -0.099786831366563    -0.180267792062640    -0.183975004870881
1 3
     0.399606892379994     0.000000000004783     0.000000000010238
    -0.000000000004708    -0.004613123721533    -0.000000000000000
    -0.000000000010238     0.000000000000000    -0.004613123721533
1 4
     0.427801593156866    -0.094394362400714    -0.094394362393808
     0.099786831336095    -0.183975004863615    -0.180267792051242
     0.099786831331373    -0.180267792055496    -0.183975004861044
1 5
    -0.183975004868208    -0.099786830835437    -0.180267791586055
     0.094394362917821     0.427801593170025     0.094394362672846
    -0.180267792533841    -0.099786831100812    -0.183975004869609
1 6
    -0.034159596720612     0.061835566355372    -0.007585928860496
     0.061835566679066    -0.034159596720492    -0.007585928879725
     0.007612152813503     0.007612152792934     0.003880519315708
1 7
    -0.034159596720037     0.007585928859464    -0.061835566354933
    -0.007612152811715     0.003880519315144     0.007612152794768
    -0.061835566680068    -0.007585928882473    -0.034159596720504
1 8
    -0.183975004861044     0.180267791584629     0.099786830815282
     0.180267792528069    -0.183975004869575    -0.099786831095591
    -0.094394362892775     0.094394362664759     0.427801593162826
1 9
    -0.004613123721533    -0.000000000004783     0.000000000000000
     0.000000000004708     0.399606892379994     0.000000000007698
    -0.000000000000000    -0.000000000007623    -0.004613123721533
1 10
     0.003880519315241    -0.007612152771521     0.007612152775142
     0.007585928898734    -0.034159596720026    -0.061835566516732
    -0.007585928902514    -0.061835566518173    -0.034159596720612
1 11
    -0.004613123721533     0.000000000000000    -0.000000000010238
    -0.000000000000000    -0.004613123721533    -0.000000000007698
     0.000000000010238     0.000000000007623     0.399606892379994
1 12
     0.003880519314828     0.007612152775553    -0.007612152771752
    -0.007585928902753    -0.034159596720383    -0.061835566516939
     0.007585928899147    -0.061835566518379    -0.034159596719842
1 13
    -0.183975004863650     0.099786830814160    -0.180267791580021
    -0.094394362896704     0.427801593158106    -0.094394362645347
    -0.180267792527956     0.099786831073472    -0.183975004862249
1 14
    -0.183975004870881     0.180267791585647    -0.099786830839407
     0.180267792529529    -0.183975004862216     0.099786831081423
     0.094394362916968    -0.094394362650817     0.427801593165304
1 15
    -0.034159596720394    -0.007585928862697    -0.061835566355042
     0.007612152814956     0.003880519314925    -0.007612152791878
    -0.061835566680178     0.007585928879575    -0.034159596719928
1 16
    -0.034159596719842     0.061835566356044     0.007585928860924
     0.061835566679740    -0.034159596719916     0.007585928881409
    -0.007612152813908    -0.007612152794632     0.003880519314362
1 17
    -0.183975004870814    -0.180267791589411    -0.099786830843912
    -0.180267792533124    -0.183975004869641    -0.099786831102398
     0.094394362925966     0.094394362676124     0.427801593172663
1 18
    -0.034159596720394    -0.007585928859980     0.061835566354753
     0.007612152812987     0.003880519315501     0.007612152793713
     0.061835566679891    -0.007585928880626    -0.034159596720504
1 19
    -0.034159596719819    -0.061835566355758     0.007585928858749
    -0.061835566679450    -0.034159596720515    -0.007585928883034
    -0.007612152811399     0.007612152795887     0.003880519314938
1 20
    -0.183975004863650     0.099786830826014     0.180267791583822
    -0.094394362898788     0.427801593165466     0.094394362663865
     0.180267792531516    -0.099786831101601    -0.183975004869609
1 21
     0.003880519315598     0.007612152772708     0.007612152773969
    -0.007585928899331    -0.034159596720405     0.061835566516554
    -0.007585928900788     0.061835566517993    -0.034159596720589
1 22
    -0.022358448552516     0.000000000000000     0.000000000000000
    -0.000000000000000    -0.022358448552516    -0.000000000000000
    -0.000000000000000     0.000000000000000    -0.022358448552516
1 23
     0.003880519314471    -0.007612152774940    -0.007612152773505
     0.007585928901578    -0.034159596720049     0.061835566517116
     0.007585928900301     0.061835566518558    -0.034159596719819
1 24
    -0.016973377907816     0.000000000000384     0.000000000000821
    -0.000000000000378    -0.049402317980629    -0.000000000000000
    -0.000000000000821     0.000000000000000    -0.049402317980629
1 25
    -0.034159596720589    -0.061835566355658    -0.007585928863031
    -0.061835566679356    -0.034159596719939     0.007585928878453
     0.007612152815658    -0.007612152791319     0.003880519315132
1 26
    -0.034159596720037     0.007585928861412     0.061835566355222
    -0.007612152814456     0.003880519314568    -0.007612152793704
     0.061835566680355     0.007585928880654    -0.034159596719928
1 27
    -0.183975004860977    -0.180267791580865     0.099786830806055
    -0.180267792524474    -0.183975004862283     0.099786831069966
    -0.094394362888175    -0.094394362643919     0.427801593155468
1 28
    -0.183975004868208    -0.099786830833693     0.180267791582255
     0.094394362906174     0.427801593162664    -0.094394362644764
     0.180267792530280     0.099786831082793    -0.183975004862249
1 29
     0.427801593166703    -0.094394362406286     0.094394362421204
     0.099786831349028    -0.183975004863682     0.180267792056297
    -0.099786831366127     0.180267792060278    -0.183975004870814
1 30
    -0.049402317980629    -0.000000000000384     0.000000000000000
     0.000000000000378    -0.016973377907816     0.000000000000618
    -0.000000000000000    -0.000000000000612    -0.049402317980629
1 31
     0.427801593161427     0.094394362411631    -0.094394362394479
    -0.099786831354147    -0.183975004868242     0.180267792053441
     0.099786831339335     0.180267792057858    -0.183975004860977
1 32
    -0.049402317980629     0.000000000000000    -0.000000000000821
    -0.000000000000000    -0.049402317980629    -0.000000000000618
     0.000000000000821     0.000000000000612    -0.016973377907816
1 33
    -3.291403328643774    -2.321367133771260    -2.321367133775981
    -2.321367145952698    -3.291403328644204    -2.321367139866915
    -2.321367145948406    -2.321367139857902    -3.291403328644633
1 34
    -0.210393887649845     0.026166728463248     0.026166728460115
     0.025298339753927    -0.021297348711116    -0.020794541989412
     0.025298339757098    -0.020794541990596    -0.021297348711140
1 35
    -0.210393887649900    -0.026166728466669    -0.026166728469202
    -0.025298339750575    -0.021297348711105    -0.020794541990084
    -0.025298339748003    -0.020794541989869    -0.021297348711096
1 36
    -3.291403328644632     2.321367133888855     2.321367133830916
     2.321367145835103    -3.291403328643346    -2.321367139803396
     2.321367145894330    -2.321367139920562    -3.291403328644633
1 37
    -0.021297348711129     0.025298339621506    -0.020794541935148
     0.026166728600298    -0.210393887649846     0.026166728529953
    -0.020794542044858     0.025298339689491    -0.021297348711126
1 38
     0.017861087320225    -0.027477536288545     0.027477536287199
    -0.027477536432033     0.017861087320210     0.027477536358951
     0.027477536433364     0.027477536361628     0.017861087320225
1 39
    -0.021297348711096     0.020794541934423    -0.025298339615121
     0.020794542045556    -0.021297348711131     0.025298339690645
    -0.026166728606624     0.026166728528856    -0.210393887649873
1 40
     0.006228498882347    -0.034021426226060     0.034021426222394
    -0.033675406609846     0.053426353406032     0.040628526254426
     0.033675406613480     0.040628526257881     0.053426353406040
1 41
    -0.021297348711099    -0.025298339617816    -0.020794541935493
    -0.026166728603911    -0.210393887649899    -0.026166728536670
    -0.020794542044461    -0.025298339682851    -0.021297348711102
1 42
    -0.021297348711140     0.020794541936702     0.025298339625492
     0.020794542043278    -0.021297348711089    -0.025298339682390
     0.026166728596260    -0.026166728537041    -0.210393887649872
1 43
    -0.021297348711088    -0.020794541935377    -0.025298339615314
    -0.020794542044560    -0.021297348711097    -0.025298339682854
    -0.026166728606449    -0.026166728536607    -0.210393887649916
1 44
    -0.021297348711129     0.025298339623572     0.020794541936112
     0.026166728598181    -0.210393887649869    -0.026166728535829
     0.020794542043871    -0.025298339683641    -0.021297348711102
1 45
    -3.291403328644634     2.321367133683707    -2.321367133742505
     2.321367146041110    -3.291403328644204     2.321367139920991
    -2.321367145981884     2.321367139802967    -3.291403328643776
1 46
     0.053426353406052    -0.033675406434029     0.040628526148290
    -0.034021426403671     0.006228498882326     0.034021426311532
     0.040628526363996     0.033675406525258     0.053426353406041
1 47
    -0.210393887649889     0.026166728461207    -0.026166728468698
     0.025298339755944    -0.021297348711123     0.020794541990693
    -0.025298339748473     0.020794541989270    -0.021297348711088
1 48
     0.053426353406040    -0.040628526150034     0.033675406434132
    -0.040628526362283     0.053426353406021     0.033675406521727
     0.034021426403572     0.034021426315100     0.006228498882357
1 49
    -0.021297348711132    -0.020794541935748     0.025298339624101
    -0.020794542044275    -0.021297348711139     0.025298339689002
     0.026166728597654     0.026166728530528    -0.210393887649830
1 50
     0.017861087320215     0.027477536287153    -0.027477536287849
     0.027477536433425     0.017861087320220     0.027477536360983
    -0.027477536432724     0.027477536359586     0.017861087320225
1 51
    -0.021297348711099    -0.025298339618313     0.020794541934529
    -0.026166728603378    -0.210393887649876     0.026166728528143
     0.020794542045448     0.025298339691265    -0.021297348711126
1 52
     0.006228498882325     0.034021426222885    -0.034021426225747
     0.033675406613004     0.053426353406036     0.040628526256924
    -0.033675406610142     0.040628526255361     0.053426353406058
1 53
     0.017861087320215     0.027477536289582     0.027477536288896
     0.027477536430987     0.017861087320230    -0.027477536359591
     0.027477536431688    -0.027477536360978     0.017861087320215
1 54
     0.017861087320225    -0.027477536288190    -0.027477536288246
    -0.027477536432379     0.017861087320220    -0.027477536360343
    -0.027477536432328    -0.027477536360236     0.017861087320215
1 55
     0.006228498882342     0.034021426226227     0.034021426224651
     0.033675406609663     0.053426353406051    -0.040628526255218
     0.033675406611263    -0.040628526257085     0.053426353406025
1 56
     0.006228498882329    -0.034021426225285    -0.034021426226081
    -0.033675406610622     0.053426353406047    -0.040628526256131
    -0.033675406609819    -0.040628526256158     0.053426353406043
1 57
    -0.210393887649856    -0.026166728466736     0.026166728458626
    -0.025298339750485    -0.021297348711112     0.020794541988802
     0.025298339758536     0.020794541991194    -0.021297348711132
1 58
     0.053426353406031     0.033675406433440    -0.040628526149096
     0.034021426404295     0.006228498882347     0.034021426314202
    -0.040628526363211     0.033675406522591     0.053426353406041
1 59
    -3.291403328643773    -2.321367133801302     2.321367133687569
    -2.321367145923514    -3.291403328645062     2.321367139749320
     2.321367146035961     2.321367139975498    -3.291403328643776
1 60
     0.053426353406043     0.040628526148311    -0.033675406432538
     0.040628526363989     0.053426353406036     0.033675406524570
    -0.034021426405171     0.034021426312236     0.006228498882340
1 61
     0.053426353406031     0.033675406436678     0.040628526150378
     0.034021426401024     0.006228498882346    -0.034021426314276
     0.040628526361928    -0.033675406522517     0.053426353406042
1 62
     0.053426353406052    -0.033675406433855    -0.040628526149573
    -0.034021426403847     0.006228498882325    -0.034021426315053
    -0.040628526362712    -0.033675406521772     0.053426353406042
1 63
     0.053426353406025     0.040628526151304     0.033675406436476
     0.040628526360988     0.053426353406062    -0.033675406520714
     0.034021426401247    -0.034021426316075     0.006228498882332
1 64
     0.053426353406058    -0.040628526149581    -0.033675406433288
    -0.040628526362694     0.053426353406047    -0.033675406521988
    -0.034021426404431    -0.034021426314821     0.006228498882314
33 1
    -3.291403328643773    -2.321367133771259    -2.321367133775981
    -2.321367145952698    -3.291403328644204    -2.321367139866915
    -2.321367145948405    -2.321367139857902    -3.291403328644633
33 2
    -3.291403328644631     2.321367133888855     2.321367133830915
     2.321367145835102    -3.291403328643346    -2.321367139803396
     2.321367145894329    -2.321367139920562    -3.291403328644633
33 3
    -0.210393887649900    -0.026166728466669    -0.026166728469202
    -0.025298339750575    -0.021297348711105    -0.020794541990084
    -0.025298339748003    -0.020794541989869    -0.021297348711096
33 4
    -0.210393887649845     0.026166728463248     0.026166728460115
     0.025298339753927    -0.021297348711116    -0.020794541989412
     0.025298339757098    -0.020794541990596    -0.021297348711140
33 5
    -3.291403328644633     2.321367133683706    -2.321367133742505
     2.321367146041110    -3.291403328644204     2.321367139920991
    -2.321367145981884     2.321367139802967    -3.291403328643776
33 6
     0.053426353406040    -0.040628526150034     0.033675406434132
    -0.040628526362283     0.053426353406021     0.033675406521727
     0.034021426403572     0.034021426315100     0.006228498882357
33 7
    -0.210393887649889     0.026166728461207    -0.026166728468698
     0.025298339755944    -0.021297348711123     0.020794541990693
    -0.025298339748473     0.020794541989270    -0.021297348711088
33 8
     0.053426353406052    -0.033675406434029     0.040628526148290
    -0.034021426403671     0.006228498882326     0.034021426311532
     0.040628526363996     0.033675406525258     0.053426353406041
33 9
    -0.021297348711099    -0.025298339617816    -0.020794541935493
    -0.026166728603911    -0.210393887649899    -0.026166728536670
    -0.020794542044461    -0.025298339682851    -0.021297348711102
33 10
    -0.021297348711129     0.025298339623572     0.020794541936112
     0.026166728598181    -0.210393887649869    -0.026166728535829
     0.020794542043871    -0.025298339683641    -0.021297348711102
33 11
    -0.021297348711088    -0.020794541935377    -0.025298339615314
    -0.020794542044560    -0.021297348711097    -0.025298339682854
    -0.026166728606449    -0.026166728536607    -0.210393887649916
33 12
    -0.021297348711140     0.020794541936702     0.025298339625492
     0.020794542043278    -0.021297348711089    -0.025298339682390
     0.026166728596260    -0.026166728537041    -0.210393887649872
33 13
    -0.021297348711129     0.025298339621506    -0.020794541935148
     0.026166728600298    -0.210393887649846     0.026166728529953
    -0.020794542044858     0.025298339689491    -0.021297348711126
33 14
     0.006228498882347    -0.034021426226060     0.034021426222394
    -0.033675406609846     0.053426353406032     0.040628526254426
     0.033675406613480     0.040628526257881     0.053426353406040
33 15
    -0.021297348711096     0.020794541934423    -0.025298339615121
     0.020794542045556    -0.021297348711131     0.025298339690645
    -0.026166728606624     0.026166728528856    -0.210393887649873
33 16
     0.017861087320225    -0.027477536288545     0.027477536287199
    -0.027477536432033     0.017861087320210     0.027477536358951
     0.027477536433364     0.027477536361628     0.017861087320225
33 17
    -3.291403328643772    -2.321367133801301     2.321367133687569
    -2.321367145923513    -3.291403328645062     2.321367139749320
     2.321367146035960     2.321367139975498    -3.291403328643776
33 18
     0.053426353406031     0.033675406433440    -0.040628526149096
     0.034021426404295     0.006228498882347     0.034021426314202
    -0.040628526363211     0.033675406522591     0.053426353406041
33 19
    -0.210393887649856    -0.026166728466736     0.026166728458626
    -0.025298339750485    -0.021297348711112     0.020794541988802
     0.025298339758536     0.020794541991194    -0.021297348711132
33 20
     0.053426353406043     0.040628526148311    -0.033675406432538
     0.040628526363989     0.053426353406036     0.033675406524570
    -0.034021426405171     0.034021426312236     0.006228498882340
33 21
     0.006228498882342     0.034021426226227     0.034021426224651
     0.033675406609663     0.053426353406051    -0.040628526255218
     0.033675406611263    -0.040628526257085     0.053426353406025
33 22
     0.017861087320225    -0.027477536288190    -0.027477536288246
    -0.027477536432379     0.017861087320220    -0.027477536360343
    -0.027477536432328    -0.027477536360236     0.017861087320215
33 23
     0.017861087320215     0.027477536289582     0.027477536288896
     0.027477536430987     0.017861087320230    -0.027477536359591
     0.027477536431688    -0.027477536360978     0.017861087320215
33 24
     0.006228498882329    -0.034021426225285    -0.034021426226081
    -0.033675406610622     0.053426353406047    -0.040628526256131
    -0.033675406609819    -0.040628526256158     0.053426353406043
33 25
    -0.021297348711099    -0.025298339618313     0.020794541934529
    -0.026166728603378    -0.210393887649876     0.026166728528143
     0.020794542045448     0.025298339691265    -0.021297348711126
33 26
     0.017861087320215     0.027477536287153    -0.027477536287849
     0.027477536433425     0.017861087320220     0.027477536360983
    -0.027477536432724     0.027477536359586     0.017861087320225
33 27
    -0.021297348711132    -0.020794541935748     0.025298339624101
    -0.020794542044275    -0.021297348711139     0.025298339689002
     0.026166728597654     0.026166728530528    -0.210393887649830
33 28
     0.006228498882325     0.034021426222885    -0.034021426225747
     0.033675406613004     0.053426353406036     0.040628526256924
    -0.033675406610142     0.040628526255361     0.053426353406058
33 29
     0.053426353406025     0.040628526151304     0.033675406436476
     0.040628526360988     0.053426353406062    -0.033675406520714
     0.034021426401247    -0.034021426316075     0.006228498882332
33 30
     0.053426353406052    -0.033675406433855    -0.040628526149573
    -0.034021426403847     0.006228498882325    -0.034021426315053
    -0.040628526362712    -0.033675406521772     0.053426353406042
33 31
     0.053426353406031     0.033675406436678     0.040628526150378
     0.034021426401024     0.006228498882346    -0.034021426314276
     0.040628526361928    -0.033675406522517     0.053426353406042
33 32
     0.053426353406058    -0.040628526149581    -0.033675406433288
    -0.040628526362694     0.053426353406047    -0.033675406521988
    -0.034021426404431    -0.034021426314821     0.006228498882314
33 33
    13.419902663064091    -0.000000000000000    -0.000000000000000
     0.000000000000000    13.419902663064097     0.000000000000001
     0.000000000000000    -0.000000000000001    13.419902663064097
33 34
     0.427801593156866    -0.094394362400714    -0.094394362393808
     0.099786831336095    -0.183975004863615    -0.180267792051242
     0.099786831331372    -0.180267792055496    -0.183975004861044
33 35
     0.399606892379994     0.000000000004783     0.000000000010238
    -0.000000000004708    -0.004613123721533    -0.000000000000000
    -0.000000000010238     0.000000000000000    -0.004613123721533
33 36
     0.427801593171264     0.094394362424324     0.094394362429065
    -0.099786831359479    -0.183975004868176    -0.180267792058496
    -0.099786831366563    -0.180267792062640    -0.183975004870881
33 37
    -0.183975004863650     0.099786830814160    -0.180267791580021
    -0.094394362896704     0.427801593158106    -0.094394362645347
    -0.180267792527956     0.099786831073472    -0.183975004862249
33 38
    -0.034159596719842     0.061835566356044     0.007585928860924
     0.061835566679740    -0.034159596719916     0.007585928881409
    -0.007612152813908    -0.007612152794632     0.003880519314362
33 39
    -0.034159596720394    -0.007585928862697    -0.061835566355042
     0.007612152814956     0.003880519314925    -0.007612152791878
    -0.061835566680178     0.007585928879575    -0.034159596719928
33 40
    -0.183975004870881     0.180267791585647    -0.099786830839407
     0.180267792529529    -0.183975004862216     0.099786831081423
     0.094394362916968    -0.094394362650817     0.427801593165304
33 41
    -0.004613123721533    -0.000000000004783     0.000000000000000
     0.000000000004708     0.399606892379994     0.000000000007698
    -0.000000000000000    -0.000000000007623    -0.004613123721533
33 42
     0.003880519314828     0.007612152775553    -0.007612152771752
    -0.007585928902753    -0.034159596720383    -0.061835566516939
     0.007585928899147    -0.061835566518379    -0.034159596719842
33 43
    -0.004613123721533     0.000000000000000    -0.000000000010238
    -0.000000000000000    -0.004613123721533    -0.000000000007698
     0.000000000010238     0.000000000007623     0.399606892379994
33 44
     0.003880519315241    -0.007612152771521     0.007612152775142
     0.007585928898734    -0.034159596720026    -0.061835566516732
    -0.007585928902514    -0.061835566518173    -0.034159596720612
33 45
    -0.183975004868208    -0.099786830835437    -0.180267791586055
     0.094394362917821     0.427801593170025     0.094394362672846
    -0.180267792533841    -0.099786831100812    -0.183975004869609
33 46
    -0.183975004861044     0.180267791584629     0.099786830815282
     0.180267792528069    -0.183975004869575    -0.099786831095591
    -0.094394362892775     0.094394362664759     0.427801593162826
33 47
    -0.034159596720037     0.007585928859464    -0.061835566354933
    -0.007612152811715     0.003880519315144     0.007612152794768
    -0.061835566680068    -0.007585928882473    -0.034159596720504
33 48
    -0.034159596720612     0.061835566355372    -0.007585928860496
     0.061835566679066    -0.034159596720492    -0.007585928879725
     0.007612152813503     0.007612152792934     0.003880519315708
33 49
    -0.183975004860977    -0.180267791580865     0.099786830806055
    -0.180267792524474    -0.183975004862283     0.099786831069966
    -0.094394362888175    -0.094394362643919     0.427801593155468
33 50
    -0.034159596720037     0.007585928861412     0.061835566355222
    -0.007612152814456     0.003880519314568    -0.007612152793704
     0.061835566680355     0.007585928880654    -0.034159596719928
33 51
    -0.034159596720589    -0.061835566355658    -0.007585928863031
    -0.061835566679356    -0.034159596719939     0.007585928878453
     0.007612152815658    -0.007612152791319     0.003880519315132
33 52
    -0.183975004868208    -0.099786830833693     0.180267791582255
     0.094394362906174     0.427801593162664    -0.094394362644764
     0.180267792530280     0.099786831082793    -0.183975004862249
33 53
     0.003880519314471    -0.007612152774940    -0.007612152773505
     0.007585928901578    -0.034159596720049     0.061835566517116
     0.007585928900301     0.061835566518558    -0.034159596719819
33 54
    -0.022358448552516     0.000000000000000     0.000000000000000
    -0.000000000000000    -0.022358448552516    -0.000000000000000
    -0.000000000000000     0.000000000000000    -0.022358448552516
33 55
     0.003880519315598     0.007612152772708     0.007612152773969
    -0.007585928899331    -0.034159596720405     0.061835566516554
    -0.007585928900788     0.061835566517993    -0.034159596720589
33 56
    -0.016973377907816     0.000000000000384     0.000000000000821
    -0.000000000000378    -0.049402317980629    -0.000000000000000
    -0.000000000000821     0.000000000000000    -0.049402317980629
33 57
    -0.034159596719819    -0.061835566355758     0.007585928858749
    -0.061835566679450    -0.034159596720515    -0.007585928883034
    -0.007612152811399     0.007612152795887     0.003880519314938
33 58
    -0.034159596720394    -0.007585928859980     0.061835566354753
     0.007612152812987     0.003880519315501     0.007612152793713
     0.061835566679891    -0.007585928880626    -0.034159596720504
33 59
    -0.183975004870814    -0.180267791589411    -0.099786830843912
    -0.180267792533124    -0.183975004869641    -0.099786831102398
     0.094394362925966     0.094394362676124     0.427801593172663
33 60
    -0.183975004863650     0.099786830826014     0.180267791583822
    -0.094394362898788     0.427801593165466     0.094394362663865
     0.180267792531516    -0.099786831101601    -0.183975004869609
33 61
     0.427801593161427     0.094394362411631    -0.094394362394479
    -0.099786831354147    -0.183975004868242     0.180267792053441
     0.099786831339335     0.180267792057858    -0.183975004860977
33 62
    -0.049402317980629    -0.000000000000384     0.000000000000000
     0.000000000000378    -0.016973377907816     0.000000000000618
    -0.000000000000000    -0.000000000000612    -0.049402317980629
33 63
     0.427801593166703    -0.094394362406286     0.094394362421204
     0.099786831349028    -0.183975004863682     0.180267792056297
    -0.099786831366127     0.180267792060278    -0.183975004870814
33 64
    -0.049402317980629     0.000000000000000    -0.000000000000821
    -0.000000000000000    -0.049402317980629    -0.000000000000618
     0.000000000000821     0.000000000000612    -0.016973377907816