phonopy:
  version: "2.19.1"
  frequency_unit_conversion_factor: 15.633304
  symmetry_tolerance: 1.00000e-05

space_group:
  type: "Fd-3m"
  number: 227
  Hall_symbol: "F 4d 2 3 -1d"

supercell_matrix:
- [  -2,   2,   2 ]
- [   2,  -2,   2 ]
- [   2,   2,  -2 ]

primitive_cell:
  lattice:
  - [     0.000000000100000,     2.704416287198000,     2.704416287167000 ] # a
  - [     2.704416294294000,     0.000000000083000,     2.704416287184000 ] # b
  - [     2.704416294256999,     2.704416287178999,     0.000000000120000 ] # c
  points:
  - symbol: Si # 1
    coordinates: [  0.000000000008000,  0.000000000005000,  0.000000000019000 ]
    mass: 28.085000
  - symbol: Si # 2
    coordinates: [  0.249999999992000,  0.249999999994999,  0.249999999981000 ]
    mass: 28.085000
  reciprocal_lattice: # without 2pi
  - [    -0.184882778988644,     0.184882779464316,     0.184882779469033 ] # a*
  - [     0.184882778979278,    -0.184882779471357,     0.184882779466640 ] # b*
  - [     0.184882778984269,     0.184882779467050,    -0.184882779476006 ] # c*

unit_cell:
  lattice:
  - [     0.000000000100000,     2.704416287198000,     2.704416287167000 ] # a
  - [     2.704416294294000,     0.000000000083000,     2.704416287184000 ] # b
  - [     2.704416294257000,     2.704416287179000,     0.000000000120000 ] # c
  points:
  - symbol: Si # 1
    coordinates: [  0.000000000008000,  0.000000000005000,  0.000000000019000 ]
    mass: 28.085000
    reduced_to: 1
  - symbol: Si # 2
    coordinates: [  0.249999999992000,  0.249999999994999,  0.249999999981000 ]
    mass: 28.085000
    reduced_to: 2

supercell:
  lattice:
  - [    10.817665176901999,     0.000000000127999,     0.000000000273999 ] # a
  - [     0.000000000126000,    10.817665148587999,     0.000000000206001 ] # b
  - [     0.000000000274000,     0.000000000204000,    10.817665148462000 ] # c
  points:
  - symbol: Si # 1
    coordinates: [  0.000000000006000,  0.000000000006750,  0.000000000003250 ]
    mass: 28.085000
    reduced_to: 1
  - symbol: Si # 2
    coordinates: [  0.000000000006000,  0.250000000006750,  0.250000000003250 ]
    mass: 28.085000
    reduced_to: 1
  - symbol: Si # 3
    coordinates: [  0.000000000006000,  0.500000000006750,  0.500000000003250 ]
    mass: 28.085000
    reduced_to: 1
  - symbol: Si # 4
    coordinates: [  0.000000000006000,  0.750000000006750,  0.750000000003250 ]
    mass: 28.085000
    reduced_to: 1
  - symbol: Si # 5
    coordinates: [  0.250000000006000,  0.000000000006750,  0.250000000003250 ]
    mass: 28.085000
    reduced_to: 1
  - symbol: Si # 6
    coordinates: [  0.250000000006000,  0.250000000006750,  0.500000000003250 ]
    mass: 28.085000
    reduced_to: 1
  - symbol: Si # 7
    coordinates: [  0.250000000006000,  0.500000000006750,  0.750000000003250 ]
    mass: 28.085000
    reduced_to: 1
  - symbol: Si # 8
    coordinates: [  0.250000000006000,  0.750000000006750,  0.000000000003250 ]
    mass: 28.085000
    reduced_to: 1
  - symbol: Si # 9
    coordinates: [  0.500000000006000,  0.000000000006750,  0.500000000003250 ]
    mass: 28.085000
    reduced_to: 1
  - symbol: Si # 10
    coordinates: [  0.500000000006000,  0.250000000006750,  0.750000000003250 ]
    mass: 28.085000
    reduced_to: 1
  - symbol: Si # 11
    coordinates: [  0.500000000006000,  0.500000000006750,  0.000000000003250 ]
    mass: 28.085000
    reduced_to: 1
  - symbol: Si # 12
    coordinates: [  0.500000000006000,  0.750000000006750,  0.250000000003250 ]
    mass: 28.085000
    reduced_to: 1
  - symbol: Si # 13
    coordinates: [  0.750000000006000,  0.000000000006750,  0.750000000003250 ]
    mass: 28.085000
    reduced_to: 1
  - symbol: Si # 14
    coordinates: [  0.750000000006000,  0.250000000006750,  0.000000000003250 ]
    mass: 28.085000
    reduced_to: 1
  - symbol: Si # 15
    coordinates: [  0.750000000006000,  0.500000000006750,  0.250000000003250 ]
    mass: 28.085000
    reduced_to: 1
  - symbol: Si # 16
    coordinates: [  0.750000000006000,  0.750000000006750,  0.500000000003250 ]
    mass: 28.085000
    reduced_to: 1
  - symbol: Si # 17
    coordinates: [  0.250000000006000,  0.250000000006750,  0.000000000003250 ]
    mass: 28.085000
    reduced_to: 1
  - symbol: Si # 18
    coordinates: [  0.250000000006000,  0.500000000006750,  0.250000000003250 ]
    mass: 28.085000
    reduced_to: 1
  - symbol: Si # 19
    coordinates: [  0.250000000006000,  0.750000000006750,  0.500000000003250 ]
    mass: 28.085000
    reduced_to: 1
  - symbol: Si # 20
    coordinates: [  0.250000000006000,  0.000000000006750,  0.750000000003250 ]
    mass: 28.085000
    reduced_to: 1
  - symbol: Si # 21
    coordinates: [  0.500000000006000,  0.250000000006750,  0.250000000003250 ]
    mass: 28.085000
    reduced_to: 1
  - symbol: Si # 22
    coordinates: [  0.500000000006000,  0.500000000006750,  0.500000000003250 ]
    mass: 28.085000
    reduced_to: 1
  - symbol: Si # 23
    coordinates: [  0.500000000006000,  0.750000000006750,  0.750000000003250 ]
    mass: 28.085000
    reduced_to: 1
  - symbol: Si # 24
    coordinates: [  0.500000000006000,  0.000000000006750,  0.000000000003250 ]
    mass: 28.085000
    reduced_to: 1
  - symbol: Si # 25
    coordinates: [  0.750000000006000,  0.250000000006750,  0.500000000003250 ]
    mass: 28.085000
    reduced_to: 1
  - symbol: Si # 26
    coordinates: [  0.750000000006000,  0.500000000006750,  0.750000000003250 ]
    mass: 28.085000
    reduced_to: 1
  - symbol: Si # 27
    coordinates: [  0.750000000006000,  0.750000000006750,  0.000000000003250 ]
    mass: 28.085000
    reduced_to: 1
  - symbol: Si # 28
    coordinates: [  0.750000000006000,  0.000000000006750,  0.250000000003250 ]
    mass: 28.085000
    reduced_to: 1
  - symbol: Si # 29
    coordinates: [  0.000000000006000,  0.250000000006750,  0.750000000003250 ]
    mass: 28.085000
    reduced_to: 1
  - symbol: Si # 30
    coordinates: [  0.000000000006000,  0.500000000006750,  0.000000000003250 ]
    mass: 28.085000
    reduced_to: 1
  - symbol: Si # 31
    coordinates: [  0.000000000006000,  0.750000000006750,  0.250000000003250 ]
    mass: 28.085000
    reduced_to: 1
  - symbol: Si # 32
    coordinates: [  0.000000000006000,  0.000000000006750,  0.500000000003250 ]
    mass: 28.085000
    reduced_to: 1
  - symbol: Si # 33
    coordinates: [  0.124999999994000,  0.124999999993250,  0.124999999996750 ]
    mass: 28.085000
    reduced_to: 33
  - symbol: Si # 34
    coordinates: [  0.124999999994000,  0.374999999993250,  0.374999999996750 ]
    mass: 28.085000
    reduced_to: 33
  - symbol: Si # 35
    coordinates: [  0.124999999994000,  0.624999999993250,  0.624999999996750 ]
    mass: 28.085000
    reduced_to: 33
  - symbol: Si # 36
    coordinates: [  0.124999999994000,  0.874999999993250,  0.874999999996750 ]
    mass: 28.085000
    reduced_to: 33
  - symbol: Si # 37
    coordinates: [  0.374999999994000,  0.124999999993250,  0.374999999996750 ]
    mass: 28.085000
    reduced_to: 33
  - symbol: Si # 38
    coordinates: [  0.374999999994000,  0.374999999993250,  0.624999999996750 ]
    mass: 28.085000
    reduced_to: 33
  - symbol: Si # 39
    coordinates: [  0.374999999994000,  0.624999999993250,  0.874999999996750 ]
    mass: 28.085000
    reduced_to: 33
  - symbol: Si # 40
    coordinates: [  0.374999999994000,  0.874999999993250,  0.124999999996750 ]
    mass: 28.085000
    reduced_to: 33
  - symbol: Si # 41
    coordinates: [  0.624999999994000,  0.124999999993250,  0.624999999996750 ]
    mass: 28.085000
    reduced_to: 33
  - symbol: Si # 42
    coordinates: [  0.624999999994000,  0.374999999993250,  0.874999999996750 ]
    mass: 28.085000
    reduced_to: 33
  - symbol: Si # 43
    coordinates: [  0.624999999994000,  0.624999999993250,  0.124999999996750 ]
    mass: 28.085000
    reduced_to: 33
  - symbol: Si # 44
    coordinates: [  0.624999999994000,  0.874999999993250,  0.374999999996750 ]
    mass: 28.085000
    reduced_to: 33
  - symbol: Si # 45
    coordinates: [  0.874999999994000,  0.124999999993250,  0.874999999996750 ]
    mass: 28.085000
    reduced_to: 33
  - symbol: Si # 46
    coordinates: [  0.874999999994000,  0.374999999993250,  0.124999999996750 ]
    mass: 28.085000
    reduced_to: 33
  - symbol: Si # 47
    coordinates: [  0.874999999994000,  0.624999999993250,  0.374999999996750 ]
    mass: 28.085000
    reduced_to: 33
  - symbol: Si # 48
    coordinates: [  0.874999999994000,  0.874999999993250,  0.624999999996750 ]
    mass: 28.085000
    reduced_to: 33
  - symbol: Si # 49
    coordinates: [  0.374999999994000,  0.374999999993250,  0.124999999996750 ]
    mass: 28.085000
    reduced_to: 33
  - symbol: Si # 50
    coordinates: [  0.374999999994000,  0.624999999993250,  0.374999999996750 ]
    mass: 28.085000
    reduced_to: 33
  - symbol: Si # 51
    coordinates: [  0.374999999994000,  0.874999999993250,  0.624999999996750 ]
    mass: 28.085000
    reduced_to: 33
  - symbol: Si # 52
    coordinates: [  0.374999999994000,  0.124999999993250,  0.874999999996750 ]
    mass: 28.085000
    reduced_to: 33
  - symbol: Si # 53
    coordinates: [  0.624999999994000,  0.374999999993250,  0.374999999996750 ]
    mass: 28.085000
    reduced_to: 33
  - symbol: Si # 54
    coordinates: [  0.624999999994000,  0.624999999993250,  0.624999999996750 ]
    mass: 28.085000
    reduced_to: 33
  - symbol: Si # 55
    coordinates: [  0.624999999994000,  0.874999999993250,  0.874999999996750 ]
    mass: 28.085000
    reduced_to: 33
  - symbol: Si # 56
    coordinates: [  0.624999999994000,  0.124999999993250,  0.124999999996750 ]
    mass: 28.085000
    reduced_to: 33
  - symbol: Si # 57
    coordinates: [  0.874999999994000,  0.374999999993250,  0.624999999996750 ]
    mass: 28.085000
    reduced_to: 33
  - symbol: Si # 58
    coordinates: [  0.874999999994000,  0.624999999993250,  0.874999999996750 ]
    mass: 28.085000
    reduced_to: 33
  - symbol: Si # 59
    coordinates: [  0.874999999994000,  0.874999999993250,  0.124999999996750 ]
    mass: 28.085000
    reduced_to: 33
  - symbol: Si # 60
    coordinates: [  0.874999999994000,  0.124999999993250,  0.374999999996750 ]
    mass: 28.085000
    reduced_to: 33
  - symbol: Si # 61
    coordinates: [  0.124999999994000,  0.374999999993250,  0.874999999996750 ]
    mass: 28.085000
    reduced_to: 33
  - symbol: Si # 62
    coordinates: [  0.124999999994000,  0.624999999993250,  0.124999999996750 ]
    mass: 28.085000
    reduced_to: 33
  - symbol: Si # 63
    coordinates: [  0.124999999994000,  0.874999999993250,  0.374999999996750 ]
    mass: 28.085000
    reduced_to: 33
  - symbol: Si # 64
    coordinates: [  0.124999999994000,  0.124999999993250,  0.624999999996750 ]
    mass: 28.085000
    reduced_to: 33

displacements:
- atom:    1
  displacement:
    [   0.0100000000000000,  0.0000000000001183,  0.0000000000002533 ]
  forces:
  - [  -0.1341990266306410, -0.0000000074866296, -0.0000000132690656 ]
  - [  -0.0042836969738190, -0.0009501589706281, -0.0009501621648806 ]
  - [  -0.0039960689237999, -0.0000000031608656,  0.0000000231733511 ]
  - [  -0.0042836859088597,  0.0009501587238856,  0.0009501541653731 ]
  - [   0.0018533423730241,  0.0009990403476779,  0.0018111910829243 ]
  - [   0.0003412997982548, -0.0006176545256309,  0.0000756211467763 ]
  - [   0.0003415032653277, -0.0000757962419676,  0.0006176859235850 ]
  - [   0.0018533415845796, -0.0018111868063791, -0.0009990506734090 ]
  - [   0.0000461464428819,  0.0000000039148493, -0.0000000190271302 ]
  - [  -0.0000369512698688,  0.0000760121224363, -0.0000759910985403 ]
  - [   0.0000461160315488, -0.0000000273276605,  0.0000000097898298 ]
  - [  -0.0000371768093016, -0.0000760110930433,  0.0000759990475149 ]
  - [   0.0018261491210849, -0.0009966888984022,  0.0017941580768070 ]
  - [   0.0018261678181691, -0.0017941801304403,  0.0009966859945999 ]
  - [   0.0003417234628512,  0.0000759555531501,  0.0006190650779812 ]
  - [   0.0003418501195426, -0.0006190042689850, -0.0000760713797422 ]
  - [   0.0018533463817853,  0.0018111875969619,  0.0009990399626060 ]
  - [   0.0003415200647721,  0.0000757825397273, -0.0006176713765876 ]
  - [   0.0003416586507842,  0.0006176908505681, -0.0000756281237820 ]
  - [   0.0018533399520152, -0.0009990454612835, -0.0018111995209153 ]
  - [  -0.0000404409882363, -0.0000762617787098, -0.0000762135369032 ]
  - [   0.0002235844855252, -0.0000000034222085,  0.0000000034884190 ]
  - [  -0.0000406517051947,  0.0000762588689138,  0.0000762246758294 ]
  - [   0.0001697337790782, -0.0000000125940121, -0.0000000095083607 ]
  - [   0.0003415033152669,  0.0006190413209781,  0.0000760322129254 ]
  - [   0.0003417090608177, -0.0000759871107966, -0.0006190319641119 ]
  - [   0.0018261651164570,  0.0017941693913393, -0.0009966976768600 ]
  - [   0.0018261480421591,  0.0009966974513023, -0.0017941507209600 ]
  - [  -0.0042723448406769,  0.0009377119608658, -0.0009377485261538 ]
  - [   0.0004940184142381, -0.0000000237770419,  0.0000000174461080 ]
  - [  -0.0042723360032070, -0.0009377185472692,  0.0009377359337598 ]
  - [   0.0004940279453745,  0.0000000162622957, -0.0000000045925871 ]
  - [   0.0330722813903966,  0.0235237210713080,  0.0235237278920403 ]
  - [   0.0021083188594785, -0.0002620724452154, -0.0002620704235952 ]
  - [   0.0021082838843687,  0.0002620966276824,  0.0002620897134214 ]
  - [   0.0330722846492252, -0.0235237273869284, -0.0235237235099546 ]
  - [   0.0002157341125304, -0.0002562177619667,  0.0002099026572871 ]
  - [  -0.0001787752242015,  0.0002738938092949, -0.0002739306744674 ]
  - [   0.0002157048836392, -0.0002098729792419,  0.0002562401006433 ]
  - [  -0.0000628664649582,  0.0003395698519125, -0.0003395608386545 ]
  - [   0.0002102501701450,  0.0002497124046213,  0.0002059964752568 ]
  - [   0.0002102151332929, -0.0002060079952149, -0.0002497504212121 ]
  - [   0.0002102121435611,  0.0002060200766379,  0.0002497437379627 ]
  - [   0.0002102470304778, -0.0002497177722305, -0.0002060017499061 ]
  - [   0.0327557856964761, -0.0229036228742880,  0.0229036131962536 ]
  - [  -0.0005314980020656,  0.0003329627536330, -0.0004084705689127 ]
  - [   0.0020995692956827, -0.0002612435601217,  0.0002612676264225 ]
  - [  -0.0005315052138125,  0.0004084838369357, -0.0003329737608550 ]
  - [   0.0002156867958457,  0.0002098641157041, -0.0002562591436390 ]
  - [  -0.0001787704255806, -0.0002739071334738,  0.0002739333614923 ]
  - [   0.0002157376273971,  0.0002562258273365, -0.0002098973055861 ]
  - [  -0.0000628838282965, -0.0003395653742031,  0.0003395551279622 ]
  - [  -0.0001784491894081, -0.0002756241974916, -0.0002756173782453 ]
  - [  -0.0001784486536186,  0.0002756469762236,  0.0002756493723679 ]
  - [  -0.0000616968232252, -0.0003408676475523, -0.0003408695407883 ]
  - [  -0.0000616928388135,  0.0003408631934777,  0.0003408625234426 ]
  - [   0.0020995834664650,  0.0002612379884138, -0.0002612598922726 ]
  - [  -0.0005315055316470, -0.0003329596429805,  0.0004084665835072 ]
  - [   0.0327557814096703,  0.0229036202185007, -0.0229036145525944 ]
  - [  -0.0005314979004966, -0.0004084688136708,  0.0003329742300162 ]
  - [  -0.0005370198369906, -0.0003405534518528, -0.0004041025375824 ]
  - [  -0.0005370312985151,  0.0003405521211329,  0.0004041045321649 ]
  - [  -0.0005370264746211, -0.0004040911792864, -0.0003405327123249 ]
  - [  -0.0005370240143349,  0.0004040940399061,  0.0003405238419488 ]
