------------------------------------------------------------
          Invoking FHI-aims ...

          When using FHI-aims, please cite the following reference:

            Volker Blum, Ralf Gehrke, Felix Hanke, Paula Havu,
            Ville Havu, Xinguo Ren, Karsten Reuter, and Matthias Scheffler,
            'Ab Initio Molecular Simulations with Numeric Atom-Centered Orbitals',
            Computer Physics Communications 180, 2175-2196 (2009)

          In addition, many other developments in FHI-aims are likely important for
          your particular application. A partial list of references is given at the end of
          this file. Thank you for giving credit to the authors of these developments.

          For any questions about FHI-aims, please visit our slack channel at

            https://fhi-aims.slack.com

          and our main development and support site at

            https://aims-git.rz-berlin.mpg.de .

          The latter site, in particular, has a wiki to collect information, as well
          as an issue tracker to log discussions, suggest improvements, and report issues
          or bugs. https://aims-git.rz-berlin.mpg.de is also the main development site
          of the project and all new and updated code versions can be obtained there.
          Please send an email to aims-coordinators@fhi-berlin.mpg.de and we will add
          you to these sites. They are for you and everyone is welcome there.

------------------------------------------------------------



  Date     :  20200805, Time     :  173837.646
  Time zero on CPU 1             :   0.114803100000000E+01  s.
  Internal wall clock time zero  :           365881117.646  s.

  FHI-aims created a unique identifier for this run for later identification
  aims_uuid : 1C5EC00A-354B-43C0-AA1A-473F36777778

  Build configuration of the current instance of FHI-aims
  -------------------------------------------------------
  FHI-aims version      : 200804
  Commit number         : 72e1d098a
  CMake host system     : Linux-3.10.0-1127.10.1.el7.x86_64
  CMake version         : 3.16.2
  Fortran compiler      : /sw/comm/impi/compilers_and_libraries_2018.6.288/linux/mpi/intel64/bin/mpiifort (Intel) version 18.0.6.20190525
  Fortran compiler flags: -O3 -ip -fp-model precise
  C compiler            : /sw/comm/impi/compilers_and_libraries_2018.6.288/linux/mpi/intel64/bin/mpiicc (Intel) version 18.0.6.20190525
  C compiler flags      : -O3 -ip -fp-model precise -std=gnu99
  C++ compiler          : /sw/comm/impi/compilers_and_libraries_2018.6.288/linux/mpi/intel64/bin/mpiicpc (Intel) version 18.0.6.20190525
  C++ compiler flags    : -O3 -ip -fp-model precise
  ELPA2 kernel          : AVX512
  Using MPI
  Using ScaLAPACK
  Using LibXC
  Using SPGlib
  Using i-PI
  Using RLSY
  Linking against: /sw/compiler/intel/compilers_and_libraries_2018.6.288/linux/mkl/lib/intel64/libmkl_scalapack_lp64.so
                   /sw/compiler/intel/compilers_and_libraries_2018.6.288/linux/mkl/lib/intel64/libmkl_intel_lp64.so
                   /sw/compiler/intel/compilers_and_libraries_2018.6.288/linux/mkl/lib/intel64/libmkl_sequential.so
                   /sw/compiler/intel/compilers_and_libraries_2018.6.288/linux/mkl/lib/intel64/libmkl_core.so
                   /sw/compiler/intel/compilers_and_libraries_2018.6.288/linux/mkl/lib/intel64/libmkl_blacs_intelmpi_lp64.so

  Using     1920 parallel tasks.
  Task        0 on host bcn1273 reporting.
  Task        1 on host bcn1273 reporting.
  Task        2 on host bcn1273 reporting.
  Task        3 on host bcn1273 reporting.
  Task        4 on host bcn1273 reporting.
  Task        5 on host bcn1273 reporting.
  Task        6 on host bcn1273 reporting.
  Task        7 on host bcn1273 reporting.
  Task        8 on host bcn1273 reporting.
  Task        9 on host bcn1273 reporting.
  Task       10 on host bcn1273 reporting.
  Task       11 on host bcn1273 reporting.
  Task       12 on host bcn1273 reporting.
  Task       13 on host bcn1273 reporting.
  Task       14 on host bcn1273 reporting.
  Task       15 on host bcn1273 reporting.
  Task       16 on host bcn1273 reporting.
  Task       17 on host bcn1273 reporting.
  Task       18 on host bcn1273 reporting.
  Task       19 on host bcn1273 reporting.
  Task       20 on host bcn1273 reporting.
  Task       21 on host bcn1273 reporting.
  Task       22 on host bcn1273 reporting.
  Task       23 on host bcn1273 reporting.
  Task       24 on host bcn1273 reporting.
  Task       25 on host bcn1273 reporting.
  Task       26 on host bcn1273 reporting.
  Task       27 on host bcn1273 reporting.
  Task       28 on host bcn1273 reporting.
  Task       29 on host bcn1273 reporting.
  Task       30 on host bcn1273 reporting.
  Task       31 on host bcn1273 reporting.
  Task       32 on host bcn1273 reporting.
  Task       33 on host bcn1273 reporting.
  Task       34 on host bcn1273 reporting.
  Task       35 on host bcn1273 reporting.
  Task       36 on host bcn1273 reporting.
  Task       37 on host bcn1273 reporting.
  Task       38 on host bcn1273 reporting.
  Task       39 on host bcn1273 reporting.
  Task       40 on host bcn1273 reporting.
  Task       41 on host bcn1273 reporting.
  Task       42 on host bcn1273 reporting.
  Task       43 on host bcn1273 reporting.
  Task       44 on host bcn1273 reporting.
  Task       45 on host bcn1273 reporting.
  Task       46 on host bcn1273 reporting.
  Task       47 on host bcn1273 reporting.
  Task       48 on host bcn1273 reporting.
  Task       49 on host bcn1273 reporting.
  Task       50 on host bcn1273 reporting.
  Task       51 on host bcn1273 reporting.
  Task       52 on host bcn1273 reporting.
  Task       53 on host bcn1273 reporting.
  Task       54 on host bcn1273 reporting.
  Task       55 on host bcn1273 reporting.
  Task       56 on host bcn1273 reporting.
  Task       57 on host bcn1273 reporting.
  Task       58 on host bcn1273 reporting.
  Task       59 on host bcn1273 reporting.
  Task       60 on host bcn1273 reporting.
  Task       61 on host bcn1273 reporting.
  Task       62 on host bcn1273 reporting.
  Task       63 on host bcn1273 reporting.
  Task       64 on host bcn1273 reporting.
  Task       65 on host bcn1273 reporting.
  Task       66 on host bcn1273 reporting.
  Task       67 on host bcn1273 reporting.
  Task       68 on host bcn1273 reporting.
  Task       69 on host bcn1273 reporting.
  Task       70 on host bcn1273 reporting.
  Task       71 on host bcn1273 reporting.
  Task       72 on host bcn1273 reporting.
  Task       73 on host bcn1273 reporting.
  Task       74 on host bcn1273 reporting.
  Task       75 on host bcn1273 reporting.
  Task       76 on host bcn1273 reporting.
  Task       77 on host bcn1273 reporting.
  Task       78 on host bcn1273 reporting.
  Task       79 on host bcn1273 reporting.
  Task       80 on host bcn1273 reporting.
  Task       81 on host bcn1273 reporting.
  Task       82 on host bcn1273 reporting.
  Task       83 on host bcn1273 reporting.
  Task       84 on host bcn1273 reporting.
  Task       85 on host bcn1273 reporting.
  Task       86 on host bcn1273 reporting.
  Task       87 on host bcn1273 reporting.
  Task       88 on host bcn1273 reporting.
  Task       89 on host bcn1273 reporting.
  Task       90 on host bcn1273 reporting.
  Task       91 on host bcn1273 reporting.
  Task       92 on host bcn1273 reporting.
  Task       93 on host bcn1273 reporting.
  Task       94 on host bcn1273 reporting.
  Task       95 on host bcn1273 reporting.
  Task       96 on host bcn1275 reporting.
  Task       97 on host bcn1275 reporting.
  Task       98 on host bcn1275 reporting.
  Task       99 on host bcn1275 reporting.
  Task      100 on host bcn1275 reporting.
  Task      101 on host bcn1275 reporting.
  Task      102 on host bcn1275 reporting.
  Task      103 on host bcn1275 reporting.
  Task      104 on host bcn1275 reporting.
  Task      105 on host bcn1275 reporting.
  Task      106 on host bcn1275 reporting.
  Task      107 on host bcn1275 reporting.
  Task      108 on host bcn1275 reporting.
  Task      109 on host bcn1275 reporting.
  Task      110 on host bcn1275 reporting.
  Task      111 on host bcn1275 reporting.
  Task      112 on host bcn1275 reporting.
  Task      113 on host bcn1275 reporting.
  Task      114 on host bcn1275 reporting.
  Task      115 on host bcn1275 reporting.
  Task      116 on host bcn1275 reporting.
  Task      117 on host bcn1275 reporting.
  Task      118 on host bcn1275 reporting.
  Task      119 on host bcn1275 reporting.
  Task      120 on host bcn1275 reporting.
  Task      121 on host bcn1275 reporting.
  Task      122 on host bcn1275 reporting.
  Task      123 on host bcn1275 reporting.
  Task      124 on host bcn1275 reporting.
  Task      125 on host bcn1275 reporting.
  Task      126 on host bcn1275 reporting.
  Task      127 on host bcn1275 reporting.
  Task      128 on host bcn1275 reporting.
  Task      129 on host bcn1275 reporting.
  Task      130 on host bcn1275 reporting.
  Task      131 on host bcn1275 reporting.
  Task      132 on host bcn1275 reporting.
  Task      133 on host bcn1275 reporting.
  Task      134 on host bcn1275 reporting.
  Task      135 on host bcn1275 reporting.
  Task      136 on host bcn1275 reporting.
  Task      137 on host bcn1275 reporting.
  Task      138 on host bcn1275 reporting.
  Task      139 on host bcn1275 reporting.
  Task      140 on host bcn1275 reporting.
  Task      141 on host bcn1275 reporting.
  Task      142 on host bcn1275 reporting.
  Task      143 on host bcn1275 reporting.
  Task      144 on host bcn1275 reporting.
  Task      145 on host bcn1275 reporting.
  Task      146 on host bcn1275 reporting.
  Task      147 on host bcn1275 reporting.
  Task      148 on host bcn1275 reporting.
  Task      149 on host bcn1275 reporting.
  Task      150 on host bcn1275 reporting.
  Task      151 on host bcn1275 reporting.
  Task      152 on host bcn1275 reporting.
  Task      153 on host bcn1275 reporting.
  Task      154 on host bcn1275 reporting.
  Task      155 on host bcn1275 reporting.
  Task      156 on host bcn1275 reporting.
  Task      157 on host bcn1275 reporting.
  Task      158 on host bcn1275 reporting.
  Task      159 on host bcn1275 reporting.
  Task      160 on host bcn1275 reporting.
  Task      161 on host bcn1275 reporting.
  Task      162 on host bcn1275 reporting.
  Task      163 on host bcn1275 reporting.
  Task      164 on host bcn1275 reporting.
  Task      165 on host bcn1275 reporting.
  Task      166 on host bcn1275 reporting.
  Task      167 on host bcn1275 reporting.
  Task      168 on host bcn1275 reporting.
  Task      169 on host bcn1275 reporting.
  Task      170 on host bcn1275 reporting.
  Task      171 on host bcn1275 reporting.
  Task      172 on host bcn1275 reporting.
  Task      173 on host bcn1275 reporting.
  Task      174 on host bcn1275 reporting.
  Task      175 on host bcn1275 reporting.
  Task      176 on host bcn1275 reporting.
  Task      177 on host bcn1275 reporting.
  Task      178 on host bcn1275 reporting.
  Task      179 on host bcn1275 reporting.
  Task      180 on host bcn1275 reporting.
  Task      181 on host bcn1275 reporting.
  Task      182 on host bcn1275 reporting.
  Task      183 on host bcn1275 reporting.
  Task      184 on host bcn1275 reporting.
  Task      185 on host bcn1275 reporting.
  Task      186 on host bcn1275 reporting.
  Task      187 on host bcn1275 reporting.
  Task      188 on host bcn1275 reporting.
  Task      189 on host bcn1275 reporting.
  Task      190 on host bcn1275 reporting.
  Task      191 on host bcn1275 reporting.
  Task      192 on host bcn1277 reporting.
  Task      193 on host bcn1277 reporting.
  Task      194 on host bcn1277 reporting.
  Task      195 on host bcn1277 reporting.
  Task      196 on host bcn1277 reporting.
  Task      197 on host bcn1277 reporting.
  Task      198 on host bcn1277 reporting.
  Task      199 on host bcn1277 reporting.
  Task      200 on host bcn1277 reporting.
  Task      201 on host bcn1277 reporting.
  Task      202 on host bcn1277 reporting.
  Task      203 on host bcn1277 reporting.
  Task      204 on host bcn1277 reporting.
  Task      205 on host bcn1277 reporting.
  Task      206 on host bcn1277 reporting.
  Task      207 on host bcn1277 reporting.
  Task      208 on host bcn1277 reporting.
  Task      209 on host bcn1277 reporting.
  Task      210 on host bcn1277 reporting.
  Task      211 on host bcn1277 reporting.
  Task      212 on host bcn1277 reporting.
  Task      213 on host bcn1277 reporting.
  Task      214 on host bcn1277 reporting.
  Task      215 on host bcn1277 reporting.
  Task      216 on host bcn1277 reporting.
  Task      217 on host bcn1277 reporting.
  Task      218 on host bcn1277 reporting.
  Task      219 on host bcn1277 reporting.
  Task      220 on host bcn1277 reporting.
  Task      221 on host bcn1277 reporting.
  Task      222 on host bcn1277 reporting.
  Task      223 on host bcn1277 reporting.
  Task      224 on host bcn1277 reporting.
  Task      225 on host bcn1277 reporting.
  Task      226 on host bcn1277 reporting.
  Task      227 on host bcn1277 reporting.
  Task      228 on host bcn1277 reporting.
  Task      229 on host bcn1277 reporting.
  Task      230 on host bcn1277 reporting.
  Task      231 on host bcn1277 reporting.
  Task      232 on host bcn1277 reporting.
  Task      233 on host bcn1277 reporting.
  Task      234 on host bcn1277 reporting.
  Task      235 on host bcn1277 reporting.
  Task      236 on host bcn1277 reporting.
  Task      237 on host bcn1277 reporting.
  Task      238 on host bcn1277 reporting.
  Task      239 on host bcn1277 reporting.
  Task      240 on host bcn1277 reporting.
  Task      241 on host bcn1277 reporting.
  Task      242 on host bcn1277 reporting.
  Task      243 on host bcn1277 reporting.
  Task      244 on host bcn1277 reporting.
  Task      245 on host bcn1277 reporting.
  Task      246 on host bcn1277 reporting.
  Task      247 on host bcn1277 reporting.
  Task      248 on host bcn1277 reporting.
  Task      249 on host bcn1277 reporting.
  Task      250 on host bcn1277 reporting.
  Task      251 on host bcn1277 reporting.
  Task      252 on host bcn1277 reporting.
  Task      253 on host bcn1277 reporting.
  Task      254 on host bcn1277 reporting.
  Task      255 on host bcn1277 reporting.
  Task      256 on host bcn1277 reporting.
  Task      257 on host bcn1277 reporting.
  Task      258 on host bcn1277 reporting.
  Task      259 on host bcn1277 reporting.
  Task      260 on host bcn1277 reporting.
  Task      261 on host bcn1277 reporting.
  Task      262 on host bcn1277 reporting.
  Task      263 on host bcn1277 reporting.
  Task      264 on host bcn1277 reporting.
  Task      265 on host bcn1277 reporting.
  Task      266 on host bcn1277 reporting.
  Task      267 on host bcn1277 reporting.
  Task      268 on host bcn1277 reporting.
  Task      269 on host bcn1277 reporting.
  Task      270 on host bcn1277 reporting.
  Task      271 on host bcn1277 reporting.
  Task      272 on host bcn1277 reporting.
  Task      273 on host bcn1277 reporting.
  Task      274 on host bcn1277 reporting.
  Task      275 on host bcn1277 reporting.
  Task      276 on host bcn1277 reporting.
  Task      277 on host bcn1277 reporting.
  Task      278 on host bcn1277 reporting.
  Task      279 on host bcn1277 reporting.
  Task      280 on host bcn1277 reporting.
  Task      281 on host bcn1277 reporting.
  Task      282 on host bcn1277 reporting.
  Task      283 on host bcn1277 reporting.
  Task      284 on host bcn1277 reporting.
  Task      285 on host bcn1277 reporting.
  Task      286 on host bcn1277 reporting.
  Task      287 on host bcn1277 reporting.
  Task      288 on host bcn1279 reporting.
  Task      289 on host bcn1279 reporting.
  Task      290 on host bcn1279 reporting.
  Task      291 on host bcn1279 reporting.
  Task      292 on host bcn1279 reporting.
  Task      293 on host bcn1279 reporting.
  Task      294 on host bcn1279 reporting.
  Task      295 on host bcn1279 reporting.
  Task      296 on host bcn1279 reporting.
  Task      297 on host bcn1279 reporting.
  Task      298 on host bcn1279 reporting.
  Task      299 on host bcn1279 reporting.
  Task      300 on host bcn1279 reporting.
  Task      301 on host bcn1279 reporting.
  Task      302 on host bcn1279 reporting.
  Task      303 on host bcn1279 reporting.
  Task      304 on host bcn1279 reporting.
  Task      305 on host bcn1279 reporting.
  Task      306 on host bcn1279 reporting.
  Task      307 on host bcn1279 reporting.
  Task      308 on host bcn1279 reporting.
  Task      309 on host bcn1279 reporting.
  Task      310 on host bcn1279 reporting.
  Task      311 on host bcn1279 reporting.
  Task      312 on host bcn1279 reporting.
  Task      313 on host bcn1279 reporting.
  Task      314 on host bcn1279 reporting.
  Task      315 on host bcn1279 reporting.
  Task      316 on host bcn1279 reporting.
  Task      317 on host bcn1279 reporting.
  Task      318 on host bcn1279 reporting.
  Task      319 on host bcn1279 reporting.
  Task      320 on host bcn1279 reporting.
  Task      321 on host bcn1279 reporting.
  Task      322 on host bcn1279 reporting.
  Task      323 on host bcn1279 reporting.
  Task      324 on host bcn1279 reporting.
  Task      325 on host bcn1279 reporting.
  Task      326 on host bcn1279 reporting.
  Task      327 on host bcn1279 reporting.
  Task      328 on host bcn1279 reporting.
  Task      329 on host bcn1279 reporting.
  Task      330 on host bcn1279 reporting.
  Task      331 on host bcn1279 reporting.
  Task      332 on host bcn1279 reporting.
  Task      333 on host bcn1279 reporting.
  Task      334 on host bcn1279 reporting.
  Task      335 on host bcn1279 reporting.
  Task      336 on host bcn1279 reporting.
  Task      337 on host bcn1279 reporting.
  Task      338 on host bcn1279 reporting.
  Task      339 on host bcn1279 reporting.
  Task      340 on host bcn1279 reporting.
  Task      341 on host bcn1279 reporting.
  Task      342 on host bcn1279 reporting.
  Task      343 on host bcn1279 reporting.
  Task      344 on host bcn1279 reporting.
  Task      345 on host bcn1279 reporting.
  Task      346 on host bcn1279 reporting.
  Task      347 on host bcn1279 reporting.
  Task      348 on host bcn1279 reporting.
  Task      349 on host bcn1279 reporting.
  Task      350 on host bcn1279 reporting.
  Task      351 on host bcn1279 reporting.
  Task      352 on host bcn1279 reporting.
  Task      353 on host bcn1279 reporting.
  Task      354 on host bcn1279 reporting.
  Task      355 on host bcn1279 reporting.
  Task      356 on host bcn1279 reporting.
  Task      357 on host bcn1279 reporting.
  Task      358 on host bcn1279 reporting.
  Task      359 on host bcn1279 reporting.
  Task      360 on host bcn1279 reporting.
  Task      361 on host bcn1279 reporting.
  Task      362 on host bcn1279 reporting.
  Task      363 on host bcn1279 reporting.
  Task      364 on host bcn1279 reporting.
  Task      365 on host bcn1279 reporting.
  Task      366 on host bcn1279 reporting.
  Task      367 on host bcn1279 reporting.
  Task      368 on host bcn1279 reporting.
  Task      369 on host bcn1279 reporting.
  Task      370 on host bcn1279 reporting.
  Task      371 on host bcn1279 reporting.
  Task      372 on host bcn1279 reporting.
  Task      373 on host bcn1279 reporting.
  Task      374 on host bcn1279 reporting.
  Task      375 on host bcn1279 reporting.
  Task      376 on host bcn1279 reporting.
  Task      377 on host bcn1279 reporting.
  Task      378 on host bcn1279 reporting.
  Task      379 on host bcn1279 reporting.
  Task      380 on host bcn1279 reporting.
  Task      381 on host bcn1279 reporting.
  Task      382 on host bcn1279 reporting.
  Task      383 on host bcn1279 reporting.
  Task      384 on host bcn1281 reporting.
  Task      385 on host bcn1281 reporting.
  Task      386 on host bcn1281 reporting.
  Task      387 on host bcn1281 reporting.
  Task      388 on host bcn1281 reporting.
  Task      389 on host bcn1281 reporting.
  Task      390 on host bcn1281 reporting.
  Task      391 on host bcn1281 reporting.
  Task      392 on host bcn1281 reporting.
  Task      393 on host bcn1281 reporting.
  Task      394 on host bcn1281 reporting.
  Task      395 on host bcn1281 reporting.
  Task      396 on host bcn1281 reporting.
  Task      397 on host bcn1281 reporting.
  Task      398 on host bcn1281 reporting.
  Task      399 on host bcn1281 reporting.
  Task      400 on host bcn1281 reporting.
  Task      401 on host bcn1281 reporting.
  Task      402 on host bcn1281 reporting.
  Task      403 on host bcn1281 reporting.
  Task      404 on host bcn1281 reporting.
  Task      405 on host bcn1281 reporting.
  Task      406 on host bcn1281 reporting.
  Task      407 on host bcn1281 reporting.
  Task      408 on host bcn1281 reporting.
  Task      409 on host bcn1281 reporting.
  Task      410 on host bcn1281 reporting.
  Task      411 on host bcn1281 reporting.
  Task      412 on host bcn1281 reporting.
  Task      413 on host bcn1281 reporting.
  Task      414 on host bcn1281 reporting.
  Task      415 on host bcn1281 reporting.
  Task      416 on host bcn1281 reporting.
  Task      417 on host bcn1281 reporting.
  Task      418 on host bcn1281 reporting.
  Task      419 on host bcn1281 reporting.
  Task      420 on host bcn1281 reporting.
  Task      421 on host bcn1281 reporting.
  Task      422 on host bcn1281 reporting.
  Task      423 on host bcn1281 reporting.
  Task      424 on host bcn1281 reporting.
  Task      425 on host bcn1281 reporting.
  Task      426 on host bcn1281 reporting.
  Task      427 on host bcn1281 reporting.
  Task      428 on host bcn1281 reporting.
  Task      429 on host bcn1281 reporting.
  Task      430 on host bcn1281 reporting.
  Task      431 on host bcn1281 reporting.
  Task      432 on host bcn1281 reporting.
  Task      433 on host bcn1281 reporting.
  Task      434 on host bcn1281 reporting.
  Task      435 on host bcn1281 reporting.
  Task      436 on host bcn1281 reporting.
  Task      437 on host bcn1281 reporting.
  Task      438 on host bcn1281 reporting.
  Task      439 on host bcn1281 reporting.
  Task      440 on host bcn1281 reporting.
  Task      441 on host bcn1281 reporting.
  Task      442 on host bcn1281 reporting.
  Task      443 on host bcn1281 reporting.
  Task      444 on host bcn1281 reporting.
  Task      445 on host bcn1281 reporting.
  Task      446 on host bcn1281 reporting.
  Task      447 on host bcn1281 reporting.
  Task      448 on host bcn1281 reporting.
  Task      449 on host bcn1281 reporting.
  Task      450 on host bcn1281 reporting.
  Task      451 on host bcn1281 reporting.
  Task      452 on host bcn1281 reporting.
  Task      453 on host bcn1281 reporting.
  Task      454 on host bcn1281 reporting.
  Task      455 on host bcn1281 reporting.
  Task      456 on host bcn1281 reporting.
  Task      457 on host bcn1281 reporting.
  Task      458 on host bcn1281 reporting.
  Task      459 on host bcn1281 reporting.
  Task      460 on host bcn1281 reporting.
  Task      461 on host bcn1281 reporting.
  Task      462 on host bcn1281 reporting.
  Task      463 on host bcn1281 reporting.
  Task      464 on host bcn1281 reporting.
  Task      465 on host bcn1281 reporting.
  Task      466 on host bcn1281 reporting.
  Task      467 on host bcn1281 reporting.
  Task      468 on host bcn1281 reporting.
  Task      469 on host bcn1281 reporting.
  Task      470 on host bcn1281 reporting.
  Task      471 on host bcn1281 reporting.
  Task      472 on host bcn1281 reporting.
  Task      473 on host bcn1281 reporting.
  Task      474 on host bcn1281 reporting.
  Task      475 on host bcn1281 reporting.
  Task      476 on host bcn1281 reporting.
  Task      477 on host bcn1281 reporting.
  Task      478 on host bcn1281 reporting.
  Task      479 on host bcn1281 reporting.
  Task      480 on host bcn1283 reporting.
  Task      481 on host bcn1283 reporting.
  Task      482 on host bcn1283 reporting.
  Task      483 on host bcn1283 reporting.
  Task      484 on host bcn1283 reporting.
  Task      485 on host bcn1283 reporting.
  Task      486 on host bcn1283 reporting.
  Task      487 on host bcn1283 reporting.
  Task      488 on host bcn1283 reporting.
  Task      489 on host bcn1283 reporting.
  Task      490 on host bcn1283 reporting.
  Task      491 on host bcn1283 reporting.
  Task      492 on host bcn1283 reporting.
  Task      493 on host bcn1283 reporting.
  Task      494 on host bcn1283 reporting.
  Task      495 on host bcn1283 reporting.
  Task      496 on host bcn1283 reporting.
  Task      497 on host bcn1283 reporting.
  Task      498 on host bcn1283 reporting.
  Task      499 on host bcn1283 reporting.
  Task      500 on host bcn1283 reporting.
  Task      501 on host bcn1283 reporting.
  Task      502 on host bcn1283 reporting.
  Task      503 on host bcn1283 reporting.
  Task      504 on host bcn1283 reporting.
  Task      505 on host bcn1283 reporting.
  Task      506 on host bcn1283 reporting.
  Task      507 on host bcn1283 reporting.
  Task      508 on host bcn1283 reporting.
  Task      509 on host bcn1283 reporting.
  Task      510 on host bcn1283 reporting.
  Task      511 on host bcn1283 reporting.
  Task      512 on host bcn1283 reporting.
  Task      513 on host bcn1283 reporting.
  Task      514 on host bcn1283 reporting.
  Task      515 on host bcn1283 reporting.
  Task      516 on host bcn1283 reporting.
  Task      517 on host bcn1283 reporting.
  Task      518 on host bcn1283 reporting.
  Task      519 on host bcn1283 reporting.
  Task      520 on host bcn1283 reporting.
  Task      521 on host bcn1283 reporting.
  Task      522 on host bcn1283 reporting.
  Task      523 on host bcn1283 reporting.
  Task      524 on host bcn1283 reporting.
  Task      525 on host bcn1283 reporting.
  Task      526 on host bcn1283 reporting.
  Task      527 on host bcn1283 reporting.
  Task      528 on host bcn1283 reporting.
  Task      529 on host bcn1283 reporting.
  Task      530 on host bcn1283 reporting.
  Task      531 on host bcn1283 reporting.
  Task      532 on host bcn1283 reporting.
  Task      533 on host bcn1283 reporting.
  Task      534 on host bcn1283 reporting.
  Task      535 on host bcn1283 reporting.
  Task      536 on host bcn1283 reporting.
  Task      537 on host bcn1283 reporting.
  Task      538 on host bcn1283 reporting.
  Task      539 on host bcn1283 reporting.
  Task      540 on host bcn1283 reporting.
  Task      541 on host bcn1283 reporting.
  Task      542 on host bcn1283 reporting.
  Task      543 on host bcn1283 reporting.
  Task      544 on host bcn1283 reporting.
  Task      545 on host bcn1283 reporting.
  Task      546 on host bcn1283 reporting.
  Task      547 on host bcn1283 reporting.
  Task      548 on host bcn1283 reporting.
  Task      549 on host bcn1283 reporting.
  Task      550 on host bcn1283 reporting.
  Task      551 on host bcn1283 reporting.
  Task      552 on host bcn1283 reporting.
  Task      553 on host bcn1283 reporting.
  Task      554 on host bcn1283 reporting.
  Task      555 on host bcn1283 reporting.
  Task      556 on host bcn1283 reporting.
  Task      557 on host bcn1283 reporting.
  Task      558 on host bcn1283 reporting.
  Task      559 on host bcn1283 reporting.
  Task      560 on host bcn1283 reporting.
  Task      561 on host bcn1283 reporting.
  Task      562 on host bcn1283 reporting.
  Task      563 on host bcn1283 reporting.
  Task      564 on host bcn1283 reporting.
  Task      565 on host bcn1283 reporting.
  Task      566 on host bcn1283 reporting.
  Task      567 on host bcn1283 reporting.
  Task      568 on host bcn1283 reporting.
  Task      569 on host bcn1283 reporting.
  Task      570 on host bcn1283 reporting.
  Task      571 on host bcn1283 reporting.
  Task      572 on host bcn1283 reporting.
  Task      573 on host bcn1283 reporting.
  Task      574 on host bcn1283 reporting.
  Task      575 on host bcn1283 reporting.
  Task      576 on host bcn1285 reporting.
  Task      577 on host bcn1285 reporting.
  Task      578 on host bcn1285 reporting.
  Task      579 on host bcn1285 reporting.
  Task      580 on host bcn1285 reporting.
  Task      581 on host bcn1285 reporting.
  Task      582 on host bcn1285 reporting.
  Task      583 on host bcn1285 reporting.
  Task      584 on host bcn1285 reporting.
  Task      585 on host bcn1285 reporting.
  Task      586 on host bcn1285 reporting.
  Task      587 on host bcn1285 reporting.
  Task      588 on host bcn1285 reporting.
  Task      589 on host bcn1285 reporting.
  Task      590 on host bcn1285 reporting.
  Task      591 on host bcn1285 reporting.
  Task      592 on host bcn1285 reporting.
  Task      593 on host bcn1285 reporting.
  Task      594 on host bcn1285 reporting.
  Task      595 on host bcn1285 reporting.
  Task      596 on host bcn1285 reporting.
  Task      597 on host bcn1285 reporting.
  Task      598 on host bcn1285 reporting.
  Task      599 on host bcn1285 reporting.
  Task      600 on host bcn1285 reporting.
  Task      601 on host bcn1285 reporting.
  Task      602 on host bcn1285 reporting.
  Task      603 on host bcn1285 reporting.
  Task      604 on host bcn1285 reporting.
  Task      605 on host bcn1285 reporting.
  Task      606 on host bcn1285 reporting.
  Task      607 on host bcn1285 reporting.
  Task      608 on host bcn1285 reporting.
  Task      609 on host bcn1285 reporting.
  Task      610 on host bcn1285 reporting.
  Task      611 on host bcn1285 reporting.
  Task      612 on host bcn1285 reporting.
  Task      613 on host bcn1285 reporting.
  Task      614 on host bcn1285 reporting.
  Task      615 on host bcn1285 reporting.
  Task      616 on host bcn1285 reporting.
  Task      617 on host bcn1285 reporting.
  Task      618 on host bcn1285 reporting.
  Task      619 on host bcn1285 reporting.
  Task      620 on host bcn1285 reporting.
  Task      621 on host bcn1285 reporting.
  Task      622 on host bcn1285 reporting.
  Task      623 on host bcn1285 reporting.
  Task      624 on host bcn1285 reporting.
  Task      625 on host bcn1285 reporting.
  Task      626 on host bcn1285 reporting.
  Task      627 on host bcn1285 reporting.
  Task      628 on host bcn1285 reporting.
  Task      629 on host bcn1285 reporting.
  Task      630 on host bcn1285 reporting.
  Task      631 on host bcn1285 reporting.
  Task      632 on host bcn1285 reporting.
  Task      633 on host bcn1285 reporting.
  Task      634 on host bcn1285 reporting.
  Task      635 on host bcn1285 reporting.
  Task      636 on host bcn1285 reporting.
  Task      637 on host bcn1285 reporting.
  Task      638 on host bcn1285 reporting.
  Task      639 on host bcn1285 reporting.
  Task      640 on host bcn1285 reporting.
  Task      641 on host bcn1285 reporting.
  Task      642 on host bcn1285 reporting.
  Task      643 on host bcn1285 reporting.
  Task      644 on host bcn1285 reporting.
  Task      645 on host bcn1285 reporting.
  Task      646 on host bcn1285 reporting.
  Task      647 on host bcn1285 reporting.
  Task      648 on host bcn1285 reporting.
  Task      649 on host bcn1285 reporting.
  Task      650 on host bcn1285 reporting.
  Task      651 on host bcn1285 reporting.
  Task      652 on host bcn1285 reporting.
  Task      653 on host bcn1285 reporting.
  Task      654 on host bcn1285 reporting.
  Task      655 on host bcn1285 reporting.
  Task      656 on host bcn1285 reporting.
  Task      657 on host bcn1285 reporting.
  Task      658 on host bcn1285 reporting.
  Task      659 on host bcn1285 reporting.
  Task      660 on host bcn1285 reporting.
  Task      661 on host bcn1285 reporting.
  Task      662 on host bcn1285 reporting.
  Task      663 on host bcn1285 reporting.
  Task      664 on host bcn1285 reporting.
  Task      665 on host bcn1285 reporting.
  Task      666 on host bcn1285 reporting.
  Task      667 on host bcn1285 reporting.
  Task      668 on host bcn1285 reporting.
  Task      669 on host bcn1285 reporting.
  Task      670 on host bcn1285 reporting.
  Task      671 on host bcn1285 reporting.
  Task      672 on host bcn1680 reporting.
  Task      673 on host bcn1680 reporting.
  Task      674 on host bcn1680 reporting.
  Task      675 on host bcn1680 reporting.
  Task      676 on host bcn1680 reporting.
  Task      677 on host bcn1680 reporting.
  Task      678 on host bcn1680 reporting.
  Task      679 on host bcn1680 reporting.
  Task      680 on host bcn1680 reporting.
  Task      681 on host bcn1680 reporting.
  Task      682 on host bcn1680 reporting.
  Task      683 on host bcn1680 reporting.
  Task      684 on host bcn1680 reporting.
  Task      685 on host bcn1680 reporting.
  Task      686 on host bcn1680 reporting.
  Task      687 on host bcn1680 reporting.
  Task      688 on host bcn1680 reporting.
  Task      689 on host bcn1680 reporting.
  Task      690 on host bcn1680 reporting.
  Task      691 on host bcn1680 reporting.
  Task      692 on host bcn1680 reporting.
  Task      693 on host bcn1680 reporting.
  Task      694 on host bcn1680 reporting.
  Task      695 on host bcn1680 reporting.
  Task      696 on host bcn1680 reporting.
  Task      697 on host bcn1680 reporting.
  Task      698 on host bcn1680 reporting.
  Task      699 on host bcn1680 reporting.
  Task      700 on host bcn1680 reporting.
  Task      701 on host bcn1680 reporting.
  Task      702 on host bcn1680 reporting.
  Task      703 on host bcn1680 reporting.
  Task      704 on host bcn1680 reporting.
  Task      705 on host bcn1680 reporting.
  Task      706 on host bcn1680 reporting.
  Task      707 on host bcn1680 reporting.
  Task      708 on host bcn1680 reporting.
  Task      709 on host bcn1680 reporting.
  Task      710 on host bcn1680 reporting.
  Task      711 on host bcn1680 reporting.
  Task      712 on host bcn1680 reporting.
  Task      713 on host bcn1680 reporting.
  Task      714 on host bcn1680 reporting.
  Task      715 on host bcn1680 reporting.
  Task      716 on host bcn1680 reporting.
  Task      717 on host bcn1680 reporting.
  Task      718 on host bcn1680 reporting.
  Task      719 on host bcn1680 reporting.
  Task      720 on host bcn1680 reporting.
  Task      721 on host bcn1680 reporting.
  Task      722 on host bcn1680 reporting.
  Task      723 on host bcn1680 reporting.
  Task      724 on host bcn1680 reporting.
  Task      725 on host bcn1680 reporting.
  Task      726 on host bcn1680 reporting.
  Task      727 on host bcn1680 reporting.
  Task      728 on host bcn1680 reporting.
  Task      729 on host bcn1680 reporting.
  Task      730 on host bcn1680 reporting.
  Task      731 on host bcn1680 reporting.
  Task      732 on host bcn1680 reporting.
  Task      733 on host bcn1680 reporting.
  Task      734 on host bcn1680 reporting.
  Task      735 on host bcn1680 reporting.
  Task      736 on host bcn1680 reporting.
  Task      737 on host bcn1680 reporting.
  Task      738 on host bcn1680 reporting.
  Task      739 on host bcn1680 reporting.
  Task      740 on host bcn1680 reporting.
  Task      741 on host bcn1680 reporting.
  Task      742 on host bcn1680 reporting.
  Task      743 on host bcn1680 reporting.
  Task      744 on host bcn1680 reporting.
  Task      745 on host bcn1680 reporting.
  Task      746 on host bcn1680 reporting.
  Task      747 on host bcn1680 reporting.
  Task      748 on host bcn1680 reporting.
  Task      749 on host bcn1680 reporting.
  Task      750 on host bcn1680 reporting.
  Task      751 on host bcn1680 reporting.
  Task      752 on host bcn1680 reporting.
  Task      753 on host bcn1680 reporting.
  Task      754 on host bcn1680 reporting.
  Task      755 on host bcn1680 reporting.
  Task      756 on host bcn1680 reporting.
  Task      757 on host bcn1680 reporting.
  Task      758 on host bcn1680 reporting.
  Task      759 on host bcn1680 reporting.
  Task      760 on host bcn1680 reporting.
  Task      761 on host bcn1680 reporting.
  Task      762 on host bcn1680 reporting.
  Task      763 on host bcn1680 reporting.
  Task      764 on host bcn1680 reporting.
  Task      765 on host bcn1680 reporting.
  Task      766 on host bcn1680 reporting.
  Task      767 on host bcn1680 reporting.
  Task      768 on host bcn1698 reporting.
  Task      769 on host bcn1698 reporting.
  Task      770 on host bcn1698 reporting.
  Task      771 on host bcn1698 reporting.
  Task      772 on host bcn1698 reporting.
  Task      773 on host bcn1698 reporting.
  Task      774 on host bcn1698 reporting.
  Task      775 on host bcn1698 reporting.
  Task      776 on host bcn1698 reporting.
  Task      777 on host bcn1698 reporting.
  Task      778 on host bcn1698 reporting.
  Task      779 on host bcn1698 reporting.
  Task      780 on host bcn1698 reporting.
  Task      781 on host bcn1698 reporting.
  Task      782 on host bcn1698 reporting.
  Task      783 on host bcn1698 reporting.
  Task      784 on host bcn1698 reporting.
  Task      785 on host bcn1698 reporting.
  Task      786 on host bcn1698 reporting.
  Task      787 on host bcn1698 reporting.
  Task      788 on host bcn1698 reporting.
  Task      789 on host bcn1698 reporting.
  Task      790 on host bcn1698 reporting.
  Task      791 on host bcn1698 reporting.
  Task      792 on host bcn1698 reporting.
  Task      793 on host bcn1698 reporting.
  Task      794 on host bcn1698 reporting.
  Task      795 on host bcn1698 reporting.
  Task      796 on host bcn1698 reporting.
  Task      797 on host bcn1698 reporting.
  Task      798 on host bcn1698 reporting.
  Task      799 on host bcn1698 reporting.
  Task      800 on host bcn1698 reporting.
  Task      801 on host bcn1698 reporting.
  Task      802 on host bcn1698 reporting.
  Task      803 on host bcn1698 reporting.
  Task      804 on host bcn1698 reporting.
  Task      805 on host bcn1698 reporting.
  Task      806 on host bcn1698 reporting.
  Task      807 on host bcn1698 reporting.
  Task      808 on host bcn1698 reporting.
  Task      809 on host bcn1698 reporting.
  Task      810 on host bcn1698 reporting.
  Task      811 on host bcn1698 reporting.
  Task      812 on host bcn1698 reporting.
  Task      813 on host bcn1698 reporting.
  Task      814 on host bcn1698 reporting.
  Task      815 on host bcn1698 reporting.
  Task      816 on host bcn1698 reporting.
  Task      817 on host bcn1698 reporting.
  Task      818 on host bcn1698 reporting.
  Task      819 on host bcn1698 reporting.
  Task      820 on host bcn1698 reporting.
  Task      821 on host bcn1698 reporting.
  Task      822 on host bcn1698 reporting.
  Task      823 on host bcn1698 reporting.
  Task      824 on host bcn1698 reporting.
  Task      825 on host bcn1698 reporting.
  Task      826 on host bcn1698 reporting.
  Task      827 on host bcn1698 reporting.
  Task      828 on host bcn1698 reporting.
  Task      829 on host bcn1698 reporting.
  Task      830 on host bcn1698 reporting.
  Task      831 on host bcn1698 reporting.
  Task      832 on host bcn1698 reporting.
  Task      833 on host bcn1698 reporting.
  Task      834 on host bcn1698 reporting.
  Task      835 on host bcn1698 reporting.
  Task      836 on host bcn1698 reporting.
  Task      837 on host bcn1698 reporting.
  Task      838 on host bcn1698 reporting.
  Task      839 on host bcn1698 reporting.
  Task      840 on host bcn1698 reporting.
  Task      841 on host bcn1698 reporting.
  Task      842 on host bcn1698 reporting.
  Task      843 on host bcn1698 reporting.
  Task      844 on host bcn1698 reporting.
  Task      845 on host bcn1698 reporting.
  Task      846 on host bcn1698 reporting.
  Task      847 on host bcn1698 reporting.
  Task      848 on host bcn1698 reporting.
  Task      849 on host bcn1698 reporting.
  Task      850 on host bcn1698 reporting.
  Task      851 on host bcn1698 reporting.
  Task      852 on host bcn1698 reporting.
  Task      853 on host bcn1698 reporting.
  Task      854 on host bcn1698 reporting.
  Task      855 on host bcn1698 reporting.
  Task      856 on host bcn1698 reporting.
  Task      857 on host bcn1698 reporting.
  Task      858 on host bcn1698 reporting.
  Task      859 on host bcn1698 reporting.
  Task      860 on host bcn1698 reporting.
  Task      861 on host bcn1698 reporting.
  Task      862 on host bcn1698 reporting.
  Task      863 on host bcn1698 reporting.
  Task      864 on host bcn1700 reporting.
  Task      865 on host bcn1700 reporting.
  Task      866 on host bcn1700 reporting.
  Task      867 on host bcn1700 reporting.
  Task      868 on host bcn1700 reporting.
  Task      869 on host bcn1700 reporting.
  Task      870 on host bcn1700 reporting.
  Task      871 on host bcn1700 reporting.
  Task      872 on host bcn1700 reporting.
  Task      873 on host bcn1700 reporting.
  Task      874 on host bcn1700 reporting.
  Task      875 on host bcn1700 reporting.
  Task      876 on host bcn1700 reporting.
  Task      877 on host bcn1700 reporting.
  Task      878 on host bcn1700 reporting.
  Task      879 on host bcn1700 reporting.
  Task      880 on host bcn1700 reporting.
  Task      881 on host bcn1700 reporting.
  Task      882 on host bcn1700 reporting.
  Task      883 on host bcn1700 reporting.
  Task      884 on host bcn1700 reporting.
  Task      885 on host bcn1700 reporting.
  Task      886 on host bcn1700 reporting.
  Task      887 on host bcn1700 reporting.
  Task      888 on host bcn1700 reporting.
  Task      889 on host bcn1700 reporting.
  Task      890 on host bcn1700 reporting.
  Task      891 on host bcn1700 reporting.
  Task      892 on host bcn1700 reporting.
  Task      893 on host bcn1700 reporting.
  Task      894 on host bcn1700 reporting.
  Task      895 on host bcn1700 reporting.
  Task      896 on host bcn1700 reporting.
  Task      897 on host bcn1700 reporting.
  Task      898 on host bcn1700 reporting.
  Task      899 on host bcn1700 reporting.
  Task      900 on host bcn1700 reporting.
  Task      901 on host bcn1700 reporting.
  Task      902 on host bcn1700 reporting.
  Task      903 on host bcn1700 reporting.
  Task      904 on host bcn1700 reporting.
  Task      905 on host bcn1700 reporting.
  Task      906 on host bcn1700 reporting.
  Task      907 on host bcn1700 reporting.
  Task      908 on host bcn1700 reporting.
  Task      909 on host bcn1700 reporting.
  Task      910 on host bcn1700 reporting.
  Task      911 on host bcn1700 reporting.
  Task      912 on host bcn1700 reporting.
  Task      913 on host bcn1700 reporting.
  Task      914 on host bcn1700 reporting.
  Task      915 on host bcn1700 reporting.
  Task      916 on host bcn1700 reporting.
  Task      917 on host bcn1700 reporting.
  Task      918 on host bcn1700 reporting.
  Task      919 on host bcn1700 reporting.
  Task      920 on host bcn1700 reporting.
  Task      921 on host bcn1700 reporting.
  Task      922 on host bcn1700 reporting.
  Task      923 on host bcn1700 reporting.
  Task      924 on host bcn1700 reporting.
  Task      925 on host bcn1700 reporting.
  Task      926 on host bcn1700 reporting.
  Task      927 on host bcn1700 reporting.
  Task      928 on host bcn1700 reporting.
  Task      929 on host bcn1700 reporting.
  Task      930 on host bcn1700 reporting.
  Task      931 on host bcn1700 reporting.
  Task      932 on host bcn1700 reporting.
  Task      933 on host bcn1700 reporting.
  Task      934 on host bcn1700 reporting.
  Task      935 on host bcn1700 reporting.
  Task      936 on host bcn1700 reporting.
  Task      937 on host bcn1700 reporting.
  Task      938 on host bcn1700 reporting.
  Task      939 on host bcn1700 reporting.
  Task      940 on host bcn1700 reporting.
  Task      941 on host bcn1700 reporting.
  Task      942 on host bcn1700 reporting.
  Task      943 on host bcn1700 reporting.
  Task      944 on host bcn1700 reporting.
  Task      945 on host bcn1700 reporting.
  Task      946 on host bcn1700 reporting.
  Task      947 on host bcn1700 reporting.
  Task      948 on host bcn1700 reporting.
  Task      949 on host bcn1700 reporting.
  Task      950 on host bcn1700 reporting.
  Task      951 on host bcn1700 reporting.
  Task      952 on host bcn1700 reporting.
  Task      953 on host bcn1700 reporting.
  Task      954 on host bcn1700 reporting.
  Task      955 on host bcn1700 reporting.
  Task      956 on host bcn1700 reporting.
  Task      957 on host bcn1700 reporting.
  Task      958 on host bcn1700 reporting.
  Task      959 on host bcn1700 reporting.
  Task      960 on host bcn1702 reporting.
  Task      961 on host bcn1702 reporting.
  Task      962 on host bcn1702 reporting.
  Task      963 on host bcn1702 reporting.
  Task      964 on host bcn1702 reporting.
  Task      965 on host bcn1702 reporting.
  Task      966 on host bcn1702 reporting.
  Task      967 on host bcn1702 reporting.
  Task      968 on host bcn1702 reporting.
  Task      969 on host bcn1702 reporting.
  Task      970 on host bcn1702 reporting.
  Task      971 on host bcn1702 reporting.
  Task      972 on host bcn1702 reporting.
  Task      973 on host bcn1702 reporting.
  Task      974 on host bcn1702 reporting.
  Task      975 on host bcn1702 reporting.
  Task      976 on host bcn1702 reporting.
  Task      977 on host bcn1702 reporting.
  Task      978 on host bcn1702 reporting.
  Task      979 on host bcn1702 reporting.
  Task      980 on host bcn1702 reporting.
  Task      981 on host bcn1702 reporting.
  Task      982 on host bcn1702 reporting.
  Task      983 on host bcn1702 reporting.
  Task      984 on host bcn1702 reporting.
  Task      985 on host bcn1702 reporting.
  Task      986 on host bcn1702 reporting.
  Task      987 on host bcn1702 reporting.
  Task      988 on host bcn1702 reporting.
  Task      989 on host bcn1702 reporting.
  Task      990 on host bcn1702 reporting.
  Task      991 on host bcn1702 reporting.
  Task      992 on host bcn1702 reporting.
  Task      993 on host bcn1702 reporting.
  Task      994 on host bcn1702 reporting.
  Task      995 on host bcn1702 reporting.
  Task      996 on host bcn1702 reporting.
  Task      997 on host bcn1702 reporting.
  Task      998 on host bcn1702 reporting.
  Task      999 on host bcn1702 reporting.
  Task     1000 on host bcn1702 reporting.
  Task     1001 on host bcn1702 reporting.
  Task     1002 on host bcn1702 reporting.
  Task     1003 on host bcn1702 reporting.
  Task     1004 on host bcn1702 reporting.
  Task     1005 on host bcn1702 reporting.
  Task     1006 on host bcn1702 reporting.
  Task     1007 on host bcn1702 reporting.
  Task     1008 on host bcn1702 reporting.
  Task     1009 on host bcn1702 reporting.
  Task     1010 on host bcn1702 reporting.
  Task     1011 on host bcn1702 reporting.
  Task     1012 on host bcn1702 reporting.
  Task     1013 on host bcn1702 reporting.
  Task     1014 on host bcn1702 reporting.
  Task     1015 on host bcn1702 reporting.
  Task     1016 on host bcn1702 reporting.
  Task     1017 on host bcn1702 reporting.
  Task     1018 on host bcn1702 reporting.
  Task     1019 on host bcn1702 reporting.
  Task     1020 on host bcn1702 reporting.
  Task     1021 on host bcn1702 reporting.
  Task     1022 on host bcn1702 reporting.
  Task     1023 on host bcn1702 reporting.
  Task     1024 on host bcn1702 reporting.
  Task     1025 on host bcn1702 reporting.
  Task     1026 on host bcn1702 reporting.
  Task     1027 on host bcn1702 reporting.
  Task     1028 on host bcn1702 reporting.
  Task     1029 on host bcn1702 reporting.
  Task     1030 on host bcn1702 reporting.
  Task     1031 on host bcn1702 reporting.
  Task     1032 on host bcn1702 reporting.
  Task     1033 on host bcn1702 reporting.
  Task     1034 on host bcn1702 reporting.
  Task     1035 on host bcn1702 reporting.
  Task     1036 on host bcn1702 reporting.
  Task     1037 on host bcn1702 reporting.
  Task     1038 on host bcn1702 reporting.
  Task     1039 on host bcn1702 reporting.
  Task     1040 on host bcn1702 reporting.
  Task     1041 on host bcn1702 reporting.
  Task     1042 on host bcn1702 reporting.
  Task     1043 on host bcn1702 reporting.
  Task     1044 on host bcn1702 reporting.
  Task     1045 on host bcn1702 reporting.
  Task     1046 on host bcn1702 reporting.
  Task     1047 on host bcn1702 reporting.
  Task     1048 on host bcn1702 reporting.
  Task     1049 on host bcn1702 reporting.
  Task     1050 on host bcn1702 reporting.
  Task     1051 on host bcn1702 reporting.
  Task     1052 on host bcn1702 reporting.
  Task     1053 on host bcn1702 reporting.
  Task     1054 on host bcn1702 reporting.
  Task     1055 on host bcn1702 reporting.
  Task     1056 on host bcn1704 reporting.
  Task     1057 on host bcn1704 reporting.
  Task     1058 on host bcn1704 reporting.
  Task     1059 on host bcn1704 reporting.
  Task     1060 on host bcn1704 reporting.
  Task     1061 on host bcn1704 reporting.
  Task     1062 on host bcn1704 reporting.
  Task     1063 on host bcn1704 reporting.
  Task     1064 on host bcn1704 reporting.
  Task     1065 on host bcn1704 reporting.
  Task     1066 on host bcn1704 reporting.
  Task     1067 on host bcn1704 reporting.
  Task     1068 on host bcn1704 reporting.
  Task     1069 on host bcn1704 reporting.
  Task     1070 on host bcn1704 reporting.
  Task     1071 on host bcn1704 reporting.
  Task     1072 on host bcn1704 reporting.
  Task     1073 on host bcn1704 reporting.
  Task     1074 on host bcn1704 reporting.
  Task     1075 on host bcn1704 reporting.
  Task     1076 on host bcn1704 reporting.
  Task     1077 on host bcn1704 reporting.
  Task     1078 on host bcn1704 reporting.
  Task     1079 on host bcn1704 reporting.
  Task     1080 on host bcn1704 reporting.
  Task     1081 on host bcn1704 reporting.
  Task     1082 on host bcn1704 reporting.
  Task     1083 on host bcn1704 reporting.
  Task     1084 on host bcn1704 reporting.
  Task     1085 on host bcn1704 reporting.
  Task     1086 on host bcn1704 reporting.
  Task     1087 on host bcn1704 reporting.
  Task     1088 on host bcn1704 reporting.
  Task     1089 on host bcn1704 reporting.
  Task     1090 on host bcn1704 reporting.
  Task     1091 on host bcn1704 reporting.
  Task     1092 on host bcn1704 reporting.
  Task     1093 on host bcn1704 reporting.
  Task     1094 on host bcn1704 reporting.
  Task     1095 on host bcn1704 reporting.
  Task     1096 on host bcn1704 reporting.
  Task     1097 on host bcn1704 reporting.
  Task     1098 on host bcn1704 reporting.
  Task     1099 on host bcn1704 reporting.
  Task     1100 on host bcn1704 reporting.
  Task     1101 on host bcn1704 reporting.
  Task     1102 on host bcn1704 reporting.
  Task     1103 on host bcn1704 reporting.
  Task     1104 on host bcn1704 reporting.
  Task     1105 on host bcn1704 reporting.
  Task     1106 on host bcn1704 reporting.
  Task     1107 on host bcn1704 reporting.
  Task     1108 on host bcn1704 reporting.
  Task     1109 on host bcn1704 reporting.
  Task     1110 on host bcn1704 reporting.
  Task     1111 on host bcn1704 reporting.
  Task     1112 on host bcn1704 reporting.
  Task     1113 on host bcn1704 reporting.
  Task     1114 on host bcn1704 reporting.
  Task     1115 on host bcn1704 reporting.
  Task     1116 on host bcn1704 reporting.
  Task     1117 on host bcn1704 reporting.
  Task     1118 on host bcn1704 reporting.
  Task     1119 on host bcn1704 reporting.
  Task     1120 on host bcn1704 reporting.
  Task     1121 on host bcn1704 reporting.
  Task     1122 on host bcn1704 reporting.
  Task     1123 on host bcn1704 reporting.
  Task     1124 on host bcn1704 reporting.
  Task     1125 on host bcn1704 reporting.
  Task     1126 on host bcn1704 reporting.
  Task     1127 on host bcn1704 reporting.
  Task     1128 on host bcn1704 reporting.
  Task     1129 on host bcn1704 reporting.
  Task     1130 on host bcn1704 reporting.
  Task     1131 on host bcn1704 reporting.
  Task     1132 on host bcn1704 reporting.
  Task     1133 on host bcn1704 reporting.
  Task     1134 on host bcn1704 reporting.
  Task     1135 on host bcn1704 reporting.
  Task     1136 on host bcn1704 reporting.
  Task     1137 on host bcn1704 reporting.
  Task     1138 on host bcn1704 reporting.
  Task     1139 on host bcn1704 reporting.
  Task     1140 on host bcn1704 reporting.
  Task     1141 on host bcn1704 reporting.
  Task     1142 on host bcn1704 reporting.
  Task     1143 on host bcn1704 reporting.
  Task     1144 on host bcn1704 reporting.
  Task     1145 on host bcn1704 reporting.
  Task     1146 on host bcn1704 reporting.
  Task     1147 on host bcn1704 reporting.
  Task     1148 on host bcn1704 reporting.
  Task     1149 on host bcn1704 reporting.
  Task     1150 on host bcn1704 reporting.
  Task     1151 on host bcn1704 reporting.
  Task     1152 on host bcn1706 reporting.
  Task     1153 on host bcn1706 reporting.
  Task     1154 on host bcn1706 reporting.
  Task     1155 on host bcn1706 reporting.
  Task     1156 on host bcn1706 reporting.
  Task     1157 on host bcn1706 reporting.
  Task     1158 on host bcn1706 reporting.
  Task     1159 on host bcn1706 reporting.
  Task     1160 on host bcn1706 reporting.
  Task     1161 on host bcn1706 reporting.
  Task     1162 on host bcn1706 reporting.
  Task     1163 on host bcn1706 reporting.
  Task     1164 on host bcn1706 reporting.
  Task     1165 on host bcn1706 reporting.
  Task     1166 on host bcn1706 reporting.
  Task     1167 on host bcn1706 reporting.
  Task     1168 on host bcn1706 reporting.
  Task     1169 on host bcn1706 reporting.
  Task     1170 on host bcn1706 reporting.
  Task     1171 on host bcn1706 reporting.
  Task     1172 on host bcn1706 reporting.
  Task     1173 on host bcn1706 reporting.
  Task     1174 on host bcn1706 reporting.
  Task     1175 on host bcn1706 reporting.
  Task     1176 on host bcn1706 reporting.
  Task     1177 on host bcn1706 reporting.
  Task     1178 on host bcn1706 reporting.
  Task     1179 on host bcn1706 reporting.
  Task     1180 on host bcn1706 reporting.
  Task     1181 on host bcn1706 reporting.
  Task     1182 on host bcn1706 reporting.
  Task     1183 on host bcn1706 reporting.
  Task     1184 on host bcn1706 reporting.
  Task     1185 on host bcn1706 reporting.
  Task     1186 on host bcn1706 reporting.
  Task     1187 on host bcn1706 reporting.
  Task     1188 on host bcn1706 reporting.
  Task     1189 on host bcn1706 reporting.
  Task     1190 on host bcn1706 reporting.
  Task     1191 on host bcn1706 reporting.
  Task     1192 on host bcn1706 reporting.
  Task     1193 on host bcn1706 reporting.
  Task     1194 on host bcn1706 reporting.
  Task     1195 on host bcn1706 reporting.
  Task     1196 on host bcn1706 reporting.
  Task     1197 on host bcn1706 reporting.
  Task     1198 on host bcn1706 reporting.
  Task     1199 on host bcn1706 reporting.
  Task     1200 on host bcn1706 reporting.
  Task     1201 on host bcn1706 reporting.
  Task     1202 on host bcn1706 reporting.
  Task     1203 on host bcn1706 reporting.
  Task     1204 on host bcn1706 reporting.
  Task     1205 on host bcn1706 reporting.
  Task     1206 on host bcn1706 reporting.
  Task     1207 on host bcn1706 reporting.
  Task     1208 on host bcn1706 reporting.
  Task     1209 on host bcn1706 reporting.
  Task     1210 on host bcn1706 reporting.
  Task     1211 on host bcn1706 reporting.
  Task     1212 on host bcn1706 reporting.
  Task     1213 on host bcn1706 reporting.
  Task     1214 on host bcn1706 reporting.
  Task     1215 on host bcn1706 reporting.
  Task     1216 on host bcn1706 reporting.
  Task     1217 on host bcn1706 reporting.
  Task     1218 on host bcn1706 reporting.
  Task     1219 on host bcn1706 reporting.
  Task     1220 on host bcn1706 reporting.
  Task     1221 on host bcn1706 reporting.
  Task     1222 on host bcn1706 reporting.
  Task     1223 on host bcn1706 reporting.
  Task     1224 on host bcn1706 reporting.
  Task     1225 on host bcn1706 reporting.
  Task     1226 on host bcn1706 reporting.
  Task     1227 on host bcn1706 reporting.
  Task     1228 on host bcn1706 reporting.
  Task     1229 on host bcn1706 reporting.
  Task     1230 on host bcn1706 reporting.
  Task     1231 on host bcn1706 reporting.
  Task     1232 on host bcn1706 reporting.
  Task     1233 on host bcn1706 reporting.
  Task     1234 on host bcn1706 reporting.
  Task     1235 on host bcn1706 reporting.
  Task     1236 on host bcn1706 reporting.
  Task     1237 on host bcn1706 reporting.
  Task     1238 on host bcn1706 reporting.
  Task     1239 on host bcn1706 reporting.
  Task     1240 on host bcn1706 reporting.
  Task     1241 on host bcn1706 reporting.
  Task     1242 on host bcn1706 reporting.
  Task     1243 on host bcn1706 reporting.
  Task     1244 on host bcn1706 reporting.
  Task     1245 on host bcn1706 reporting.
  Task     1246 on host bcn1706 reporting.
  Task     1247 on host bcn1706 reporting.
  Task     1248 on host bcn1708 reporting.
  Task     1249 on host bcn1708 reporting.
  Task     1250 on host bcn1708 reporting.
  Task     1251 on host bcn1708 reporting.
  Task     1252 on host bcn1708 reporting.
  Task     1253 on host bcn1708 reporting.
  Task     1254 on host bcn1708 reporting.
  Task     1255 on host bcn1708 reporting.
  Task     1256 on host bcn1708 reporting.
  Task     1257 on host bcn1708 reporting.
  Task     1258 on host bcn1708 reporting.
  Task     1259 on host bcn1708 reporting.
  Task     1260 on host bcn1708 reporting.
  Task     1261 on host bcn1708 reporting.
  Task     1262 on host bcn1708 reporting.
  Task     1263 on host bcn1708 reporting.
  Task     1264 on host bcn1708 reporting.
  Task     1265 on host bcn1708 reporting.
  Task     1266 on host bcn1708 reporting.
  Task     1267 on host bcn1708 reporting.
  Task     1268 on host bcn1708 reporting.
  Task     1269 on host bcn1708 reporting.
  Task     1270 on host bcn1708 reporting.
  Task     1271 on host bcn1708 reporting.
  Task     1272 on host bcn1708 reporting.
  Task     1273 on host bcn1708 reporting.
  Task     1274 on host bcn1708 reporting.
  Task     1275 on host bcn1708 reporting.
  Task     1276 on host bcn1708 reporting.
  Task     1277 on host bcn1708 reporting.
  Task     1278 on host bcn1708 reporting.
  Task     1279 on host bcn1708 reporting.
  Task     1280 on host bcn1708 reporting.
  Task     1281 on host bcn1708 reporting.
  Task     1282 on host bcn1708 reporting.
  Task     1283 on host bcn1708 reporting.
  Task     1284 on host bcn1708 reporting.
  Task     1285 on host bcn1708 reporting.
  Task     1286 on host bcn1708 reporting.
  Task     1287 on host bcn1708 reporting.
  Task     1288 on host bcn1708 reporting.
  Task     1289 on host bcn1708 reporting.
  Task     1290 on host bcn1708 reporting.
  Task     1291 on host bcn1708 reporting.
  Task     1292 on host bcn1708 reporting.
  Task     1293 on host bcn1708 reporting.
  Task     1294 on host bcn1708 reporting.
  Task     1295 on host bcn1708 reporting.
  Task     1296 on host bcn1708 reporting.
  Task     1297 on host bcn1708 reporting.
  Task     1298 on host bcn1708 reporting.
  Task     1299 on host bcn1708 reporting.
  Task     1300 on host bcn1708 reporting.
  Task     1301 on host bcn1708 reporting.
  Task     1302 on host bcn1708 reporting.
  Task     1303 on host bcn1708 reporting.
  Task     1304 on host bcn1708 reporting.
  Task     1305 on host bcn1708 reporting.
  Task     1306 on host bcn1708 reporting.
  Task     1307 on host bcn1708 reporting.
  Task     1308 on host bcn1708 reporting.
  Task     1309 on host bcn1708 reporting.
  Task     1310 on host bcn1708 reporting.
  Task     1311 on host bcn1708 reporting.
  Task     1312 on host bcn1708 reporting.
  Task     1313 on host bcn1708 reporting.
  Task     1314 on host bcn1708 reporting.
  Task     1315 on host bcn1708 reporting.
  Task     1316 on host bcn1708 reporting.
  Task     1317 on host bcn1708 reporting.
  Task     1318 on host bcn1708 reporting.
  Task     1319 on host bcn1708 reporting.
  Task     1320 on host bcn1708 reporting.
  Task     1321 on host bcn1708 reporting.
  Task     1322 on host bcn1708 reporting.
  Task     1323 on host bcn1708 reporting.
  Task     1324 on host bcn1708 reporting.
  Task     1325 on host bcn1708 reporting.
  Task     1326 on host bcn1708 reporting.
  Task     1327 on host bcn1708 reporting.
  Task     1328 on host bcn1708 reporting.
  Task     1329 on host bcn1708 reporting.
  Task     1330 on host bcn1708 reporting.
  Task     1331 on host bcn1708 reporting.
  Task     1332 on host bcn1708 reporting.
  Task     1333 on host bcn1708 reporting.
  Task     1334 on host bcn1708 reporting.
  Task     1335 on host bcn1708 reporting.
  Task     1336 on host bcn1708 reporting.
  Task     1337 on host bcn1708 reporting.
  Task     1338 on host bcn1708 reporting.
  Task     1339 on host bcn1708 reporting.
  Task     1340 on host bcn1708 reporting.
  Task     1341 on host bcn1708 reporting.
  Task     1342 on host bcn1708 reporting.
  Task     1343 on host bcn1708 reporting.
  Task     1344 on host bcn1710 reporting.
  Task     1345 on host bcn1710 reporting.
  Task     1346 on host bcn1710 reporting.
  Task     1347 on host bcn1710 reporting.
  Task     1348 on host bcn1710 reporting.
  Task     1349 on host bcn1710 reporting.
  Task     1350 on host bcn1710 reporting.
  Task     1351 on host bcn1710 reporting.
  Task     1352 on host bcn1710 reporting.
  Task     1353 on host bcn1710 reporting.
  Task     1354 on host bcn1710 reporting.
  Task     1355 on host bcn1710 reporting.
  Task     1356 on host bcn1710 reporting.
  Task     1357 on host bcn1710 reporting.
  Task     1358 on host bcn1710 reporting.
  Task     1359 on host bcn1710 reporting.
  Task     1360 on host bcn1710 reporting.
  Task     1361 on host bcn1710 reporting.
  Task     1362 on host bcn1710 reporting.
  Task     1363 on host bcn1710 reporting.
  Task     1364 on host bcn1710 reporting.
  Task     1365 on host bcn1710 reporting.
  Task     1366 on host bcn1710 reporting.
  Task     1367 on host bcn1710 reporting.
  Task     1368 on host bcn1710 reporting.
  Task     1369 on host bcn1710 reporting.
  Task     1370 on host bcn1710 reporting.
  Task     1371 on host bcn1710 reporting.
  Task     1372 on host bcn1710 reporting.
  Task     1373 on host bcn1710 reporting.
  Task     1374 on host bcn1710 reporting.
  Task     1375 on host bcn1710 reporting.
  Task     1376 on host bcn1710 reporting.
  Task     1377 on host bcn1710 reporting.
  Task     1378 on host bcn1710 reporting.
  Task     1379 on host bcn1710 reporting.
  Task     1380 on host bcn1710 reporting.
  Task     1381 on host bcn1710 reporting.
  Task     1382 on host bcn1710 reporting.
  Task     1383 on host bcn1710 reporting.
  Task     1384 on host bcn1710 reporting.
  Task     1385 on host bcn1710 reporting.
  Task     1386 on host bcn1710 reporting.
  Task     1387 on host bcn1710 reporting.
  Task     1388 on host bcn1710 reporting.
  Task     1389 on host bcn1710 reporting.
  Task     1390 on host bcn1710 reporting.
  Task     1391 on host bcn1710 reporting.
  Task     1392 on host bcn1710 reporting.
  Task     1393 on host bcn1710 reporting.
  Task     1394 on host bcn1710 reporting.
  Task     1395 on host bcn1710 reporting.
  Task     1396 on host bcn1710 reporting.
  Task     1397 on host bcn1710 reporting.
  Task     1398 on host bcn1710 reporting.
  Task     1399 on host bcn1710 reporting.
  Task     1400 on host bcn1710 reporting.
  Task     1401 on host bcn1710 reporting.
  Task     1402 on host bcn1710 reporting.
  Task     1403 on host bcn1710 reporting.
  Task     1404 on host bcn1710 reporting.
  Task     1405 on host bcn1710 reporting.
  Task     1406 on host bcn1710 reporting.
  Task     1407 on host bcn1710 reporting.
  Task     1408 on host bcn1710 reporting.
  Task     1409 on host bcn1710 reporting.
  Task     1410 on host bcn1710 reporting.
  Task     1411 on host bcn1710 reporting.
  Task     1412 on host bcn1710 reporting.
  Task     1413 on host bcn1710 reporting.
  Task     1414 on host bcn1710 reporting.
  Task     1415 on host bcn1710 reporting.
  Task     1416 on host bcn1710 reporting.
  Task     1417 on host bcn1710 reporting.
  Task     1418 on host bcn1710 reporting.
  Task     1419 on host bcn1710 reporting.
  Task     1420 on host bcn1710 reporting.
  Task     1421 on host bcn1710 reporting.
  Task     1422 on host bcn1710 reporting.
  Task     1423 on host bcn1710 reporting.
  Task     1424 on host bcn1710 reporting.
  Task     1425 on host bcn1710 reporting.
  Task     1426 on host bcn1710 reporting.
  Task     1427 on host bcn1710 reporting.
  Task     1428 on host bcn1710 reporting.
  Task     1429 on host bcn1710 reporting.
  Task     1430 on host bcn1710 reporting.
  Task     1431 on host bcn1710 reporting.
  Task     1432 on host bcn1710 reporting.
  Task     1433 on host bcn1710 reporting.
  Task     1434 on host bcn1710 reporting.
  Task     1435 on host bcn1710 reporting.
  Task     1436 on host bcn1710 reporting.
  Task     1437 on host bcn1710 reporting.
  Task     1438 on host bcn1710 reporting.
  Task     1439 on host bcn1710 reporting.
  Task     1440 on host bcn1712 reporting.
  Task     1441 on host bcn1712 reporting.
  Task     1442 on host bcn1712 reporting.
  Task     1443 on host bcn1712 reporting.
  Task     1444 on host bcn1712 reporting.
  Task     1445 on host bcn1712 reporting.
  Task     1446 on host bcn1712 reporting.
  Task     1447 on host bcn1712 reporting.
  Task     1448 on host bcn1712 reporting.
  Task     1449 on host bcn1712 reporting.
  Task     1450 on host bcn1712 reporting.
  Task     1451 on host bcn1712 reporting.
  Task     1452 on host bcn1712 reporting.
  Task     1453 on host bcn1712 reporting.
  Task     1454 on host bcn1712 reporting.
  Task     1455 on host bcn1712 reporting.
  Task     1456 on host bcn1712 reporting.
  Task     1457 on host bcn1712 reporting.
  Task     1458 on host bcn1712 reporting.
  Task     1459 on host bcn1712 reporting.
  Task     1460 on host bcn1712 reporting.
  Task     1461 on host bcn1712 reporting.
  Task     1462 on host bcn1712 reporting.
  Task     1463 on host bcn1712 reporting.
  Task     1464 on host bcn1712 reporting.
  Task     1465 on host bcn1712 reporting.
  Task     1466 on host bcn1712 reporting.
  Task     1467 on host bcn1712 reporting.
  Task     1468 on host bcn1712 reporting.
  Task     1469 on host bcn1712 reporting.
  Task     1470 on host bcn1712 reporting.
  Task     1471 on host bcn1712 reporting.
  Task     1472 on host bcn1712 reporting.
  Task     1473 on host bcn1712 reporting.
  Task     1474 on host bcn1712 reporting.
  Task     1475 on host bcn1712 reporting.
  Task     1476 on host bcn1712 reporting.
  Task     1477 on host bcn1712 reporting.
  Task     1478 on host bcn1712 reporting.
  Task     1479 on host bcn1712 reporting.
  Task     1480 on host bcn1712 reporting.
  Task     1481 on host bcn1712 reporting.
  Task     1482 on host bcn1712 reporting.
  Task     1483 on host bcn1712 reporting.
  Task     1484 on host bcn1712 reporting.
  Task     1485 on host bcn1712 reporting.
  Task     1486 on host bcn1712 reporting.
  Task     1487 on host bcn1712 reporting.
  Task     1488 on host bcn1712 reporting.
  Task     1489 on host bcn1712 reporting.
  Task     1490 on host bcn1712 reporting.
  Task     1491 on host bcn1712 reporting.
  Task     1492 on host bcn1712 reporting.
  Task     1493 on host bcn1712 reporting.
  Task     1494 on host bcn1712 reporting.
  Task     1495 on host bcn1712 reporting.
  Task     1496 on host bcn1712 reporting.
  Task     1497 on host bcn1712 reporting.
  Task     1498 on host bcn1712 reporting.
  Task     1499 on host bcn1712 reporting.
  Task     1500 on host bcn1712 reporting.
  Task     1501 on host bcn1712 reporting.
  Task     1502 on host bcn1712 reporting.
  Task     1503 on host bcn1712 reporting.
  Task     1504 on host bcn1712 reporting.
  Task     1505 on host bcn1712 reporting.
  Task     1506 on host bcn1712 reporting.
  Task     1507 on host bcn1712 reporting.
  Task     1508 on host bcn1712 reporting.
  Task     1509 on host bcn1712 reporting.
  Task     1510 on host bcn1712 reporting.
  Task     1511 on host bcn1712 reporting.
  Task     1512 on host bcn1712 reporting.
  Task     1513 on host bcn1712 reporting.
  Task     1514 on host bcn1712 reporting.
  Task     1515 on host bcn1712 reporting.
  Task     1516 on host bcn1712 reporting.
  Task     1517 on host bcn1712 reporting.
  Task     1518 on host bcn1712 reporting.
  Task     1519 on host bcn1712 reporting.
  Task     1520 on host bcn1712 reporting.
  Task     1521 on host bcn1712 reporting.
  Task     1522 on host bcn1712 reporting.
  Task     1523 on host bcn1712 reporting.
  Task     1524 on host bcn1712 reporting.
  Task     1525 on host bcn1712 reporting.
  Task     1526 on host bcn1712 reporting.
  Task     1527 on host bcn1712 reporting.
  Task     1528 on host bcn1712 reporting.
  Task     1529 on host bcn1712 reporting.
  Task     1530 on host bcn1712 reporting.
  Task     1531 on host bcn1712 reporting.
  Task     1532 on host bcn1712 reporting.
  Task     1533 on host bcn1712 reporting.
  Task     1534 on host bcn1712 reporting.
  Task     1535 on host bcn1712 reporting.
  Task     1536 on host bcn1714 reporting.
  Task     1537 on host bcn1714 reporting.
  Task     1538 on host bcn1714 reporting.
  Task     1539 on host bcn1714 reporting.
  Task     1540 on host bcn1714 reporting.
  Task     1541 on host bcn1714 reporting.
  Task     1542 on host bcn1714 reporting.
  Task     1543 on host bcn1714 reporting.
  Task     1544 on host bcn1714 reporting.
  Task     1545 on host bcn1714 reporting.
  Task     1546 on host bcn1714 reporting.
  Task     1547 on host bcn1714 reporting.
  Task     1548 on host bcn1714 reporting.
  Task     1549 on host bcn1714 reporting.
  Task     1550 on host bcn1714 reporting.
  Task     1551 on host bcn1714 reporting.
  Task     1552 on host bcn1714 reporting.
  Task     1553 on host bcn1714 reporting.
  Task     1554 on host bcn1714 reporting.
  Task     1555 on host bcn1714 reporting.
  Task     1556 on host bcn1714 reporting.
  Task     1557 on host bcn1714 reporting.
  Task     1558 on host bcn1714 reporting.
  Task     1559 on host bcn1714 reporting.
  Task     1560 on host bcn1714 reporting.
  Task     1561 on host bcn1714 reporting.
  Task     1562 on host bcn1714 reporting.
  Task     1563 on host bcn1714 reporting.
  Task     1564 on host bcn1714 reporting.
  Task     1565 on host bcn1714 reporting.
  Task     1566 on host bcn1714 reporting.
  Task     1567 on host bcn1714 reporting.
  Task     1568 on host bcn1714 reporting.
  Task     1569 on host bcn1714 reporting.
  Task     1570 on host bcn1714 reporting.
  Task     1571 on host bcn1714 reporting.
  Task     1572 on host bcn1714 reporting.
  Task     1573 on host bcn1714 reporting.
  Task     1574 on host bcn1714 reporting.
  Task     1575 on host bcn1714 reporting.
  Task     1576 on host bcn1714 reporting.
  Task     1577 on host bcn1714 reporting.
  Task     1578 on host bcn1714 reporting.
  Task     1579 on host bcn1714 reporting.
  Task     1580 on host bcn1714 reporting.
  Task     1581 on host bcn1714 reporting.
  Task     1582 on host bcn1714 reporting.
  Task     1583 on host bcn1714 reporting.
  Task     1584 on host bcn1714 reporting.
  Task     1585 on host bcn1714 reporting.
  Task     1586 on host bcn1714 reporting.
  Task     1587 on host bcn1714 reporting.
  Task     1588 on host bcn1714 reporting.
  Task     1589 on host bcn1714 reporting.
  Task     1590 on host bcn1714 reporting.
  Task     1591 on host bcn1714 reporting.
  Task     1592 on host bcn1714 reporting.
  Task     1593 on host bcn1714 reporting.
  Task     1594 on host bcn1714 reporting.
  Task     1595 on host bcn1714 reporting.
  Task     1596 on host bcn1714 reporting.
  Task     1597 on host bcn1714 reporting.
  Task     1598 on host bcn1714 reporting.
  Task     1599 on host bcn1714 reporting.
  Task     1600 on host bcn1714 reporting.
  Task     1601 on host bcn1714 reporting.
  Task     1602 on host bcn1714 reporting.
  Task     1603 on host bcn1714 reporting.
  Task     1604 on host bcn1714 reporting.
  Task     1605 on host bcn1714 reporting.
  Task     1606 on host bcn1714 reporting.
  Task     1607 on host bcn1714 reporting.
  Task     1608 on host bcn1714 reporting.
  Task     1609 on host bcn1714 reporting.
  Task     1610 on host bcn1714 reporting.
  Task     1611 on host bcn1714 reporting.
  Task     1612 on host bcn1714 reporting.
  Task     1613 on host bcn1714 reporting.
  Task     1614 on host bcn1714 reporting.
  Task     1615 on host bcn1714 reporting.
  Task     1616 on host bcn1714 reporting.
  Task     1617 on host bcn1714 reporting.
  Task     1618 on host bcn1714 reporting.
  Task     1619 on host bcn1714 reporting.
  Task     1620 on host bcn1714 reporting.
  Task     1621 on host bcn1714 reporting.
  Task     1622 on host bcn1714 reporting.
  Task     1623 on host bcn1714 reporting.
  Task     1624 on host bcn1714 reporting.
  Task     1625 on host bcn1714 reporting.
  Task     1626 on host bcn1714 reporting.
  Task     1627 on host bcn1714 reporting.
  Task     1628 on host bcn1714 reporting.
  Task     1629 on host bcn1714 reporting.
  Task     1630 on host bcn1714 reporting.
  Task     1631 on host bcn1714 reporting.
  Task     1632 on host bcn1716 reporting.
  Task     1633 on host bcn1716 reporting.
  Task     1634 on host bcn1716 reporting.
  Task     1635 on host bcn1716 reporting.
  Task     1636 on host bcn1716 reporting.
  Task     1637 on host bcn1716 reporting.
  Task     1638 on host bcn1716 reporting.
  Task     1639 on host bcn1716 reporting.
  Task     1640 on host bcn1716 reporting.
  Task     1641 on host bcn1716 reporting.
  Task     1642 on host bcn1716 reporting.
  Task     1643 on host bcn1716 reporting.
  Task     1644 on host bcn1716 reporting.
  Task     1645 on host bcn1716 reporting.
  Task     1646 on host bcn1716 reporting.
  Task     1647 on host bcn1716 reporting.
  Task     1648 on host bcn1716 reporting.
  Task     1649 on host bcn1716 reporting.
  Task     1650 on host bcn1716 reporting.
  Task     1651 on host bcn1716 reporting.
  Task     1652 on host bcn1716 reporting.
  Task     1653 on host bcn1716 reporting.
  Task     1654 on host bcn1716 reporting.
  Task     1655 on host bcn1716 reporting.
  Task     1656 on host bcn1716 reporting.
  Task     1657 on host bcn1716 reporting.
  Task     1658 on host bcn1716 reporting.
  Task     1659 on host bcn1716 reporting.
  Task     1660 on host bcn1716 reporting.
  Task     1661 on host bcn1716 reporting.
  Task     1662 on host bcn1716 reporting.
  Task     1663 on host bcn1716 reporting.
  Task     1664 on host bcn1716 reporting.
  Task     1665 on host bcn1716 reporting.
  Task     1666 on host bcn1716 reporting.
  Task     1667 on host bcn1716 reporting.
  Task     1668 on host bcn1716 reporting.
  Task     1669 on host bcn1716 reporting.
  Task     1670 on host bcn1716 reporting.
  Task     1671 on host bcn1716 reporting.
  Task     1672 on host bcn1716 reporting.
  Task     1673 on host bcn1716 reporting.
  Task     1674 on host bcn1716 reporting.
  Task     1675 on host bcn1716 reporting.
  Task     1676 on host bcn1716 reporting.
  Task     1677 on host bcn1716 reporting.
  Task     1678 on host bcn1716 reporting.
  Task     1679 on host bcn1716 reporting.
  Task     1680 on host bcn1716 reporting.
  Task     1681 on host bcn1716 reporting.
  Task     1682 on host bcn1716 reporting.
  Task     1683 on host bcn1716 reporting.
  Task     1684 on host bcn1716 reporting.
  Task     1685 on host bcn1716 reporting.
  Task     1686 on host bcn1716 reporting.
  Task     1687 on host bcn1716 reporting.
  Task     1688 on host bcn1716 reporting.
  Task     1689 on host bcn1716 reporting.
  Task     1690 on host bcn1716 reporting.
  Task     1691 on host bcn1716 reporting.
  Task     1692 on host bcn1716 reporting.
  Task     1693 on host bcn1716 reporting.
  Task     1694 on host bcn1716 reporting.
  Task     1695 on host bcn1716 reporting.
  Task     1696 on host bcn1716 reporting.
  Task     1697 on host bcn1716 reporting.
  Task     1698 on host bcn1716 reporting.
  Task     1699 on host bcn1716 reporting.
  Task     1700 on host bcn1716 reporting.
  Task     1701 on host bcn1716 reporting.
  Task     1702 on host bcn1716 reporting.
  Task     1703 on host bcn1716 reporting.
  Task     1704 on host bcn1716 reporting.
  Task     1705 on host bcn1716 reporting.
  Task     1706 on host bcn1716 reporting.
  Task     1707 on host bcn1716 reporting.
  Task     1708 on host bcn1716 reporting.
  Task     1709 on host bcn1716 reporting.
  Task     1710 on host bcn1716 reporting.
  Task     1711 on host bcn1716 reporting.
  Task     1712 on host bcn1716 reporting.
  Task     1713 on host bcn1716 reporting.
  Task     1714 on host bcn1716 reporting.
  Task     1715 on host bcn1716 reporting.
  Task     1716 on host bcn1716 reporting.
  Task     1717 on host bcn1716 reporting.
  Task     1718 on host bcn1716 reporting.
  Task     1719 on host bcn1716 reporting.
  Task     1720 on host bcn1716 reporting.
  Task     1721 on host bcn1716 reporting.
  Task     1722 on host bcn1716 reporting.
  Task     1723 on host bcn1716 reporting.
  Task     1724 on host bcn1716 reporting.
  Task     1725 on host bcn1716 reporting.
  Task     1726 on host bcn1716 reporting.
  Task     1727 on host bcn1716 reporting.
  Task     1728 on host bcn1718 reporting.
  Task     1729 on host bcn1718 reporting.
  Task     1730 on host bcn1718 reporting.
  Task     1731 on host bcn1718 reporting.
  Task     1732 on host bcn1718 reporting.
  Task     1733 on host bcn1718 reporting.
  Task     1734 on host bcn1718 reporting.
  Task     1735 on host bcn1718 reporting.
  Task     1736 on host bcn1718 reporting.
  Task     1737 on host bcn1718 reporting.
  Task     1738 on host bcn1718 reporting.
  Task     1739 on host bcn1718 reporting.
  Task     1740 on host bcn1718 reporting.
  Task     1741 on host bcn1718 reporting.
  Task     1742 on host bcn1718 reporting.
  Task     1743 on host bcn1718 reporting.
  Task     1744 on host bcn1718 reporting.
  Task     1745 on host bcn1718 reporting.
  Task     1746 on host bcn1718 reporting.
  Task     1747 on host bcn1718 reporting.
  Task     1748 on host bcn1718 reporting.
  Task     1749 on host bcn1718 reporting.
  Task     1750 on host bcn1718 reporting.
  Task     1751 on host bcn1718 reporting.
  Task     1752 on host bcn1718 reporting.
  Task     1753 on host bcn1718 reporting.
  Task     1754 on host bcn1718 reporting.
  Task     1755 on host bcn1718 reporting.
  Task     1756 on host bcn1718 reporting.
  Task     1757 on host bcn1718 reporting.
  Task     1758 on host bcn1718 reporting.
  Task     1759 on host bcn1718 reporting.
  Task     1760 on host bcn1718 reporting.
  Task     1761 on host bcn1718 reporting.
  Task     1762 on host bcn1718 reporting.
  Task     1763 on host bcn1718 reporting.
  Task     1764 on host bcn1718 reporting.
  Task     1765 on host bcn1718 reporting.
  Task     1766 on host bcn1718 reporting.
  Task     1767 on host bcn1718 reporting.
  Task     1768 on host bcn1718 reporting.
  Task     1769 on host bcn1718 reporting.
  Task     1770 on host bcn1718 reporting.
  Task     1771 on host bcn1718 reporting.
  Task     1772 on host bcn1718 reporting.
  Task     1773 on host bcn1718 reporting.
  Task     1774 on host bcn1718 reporting.
  Task     1775 on host bcn1718 reporting.
  Task     1776 on host bcn1718 reporting.
  Task     1777 on host bcn1718 reporting.
  Task     1778 on host bcn1718 reporting.
  Task     1779 on host bcn1718 reporting.
  Task     1780 on host bcn1718 reporting.
[...]
            atom         6.77313189        9.48238451       -6.77313179  Si
            atom         9.48238464       12.19163723       -1.35462636  Si
            atom         9.48238464       14.90088994        1.35462636  Si
            atom         9.48238464      -14.90088994        4.06387908  Si
            atom         9.48238464      -12.19163723        6.77313179  Si
            atom         9.48238464       -9.48238451        9.48238451  Si
            atom         9.48238464       -6.77313179       12.19163723  Si
            atom         9.48238464       -4.06387908       14.90088994  Si
            atom         9.48238464       -1.35462636      -14.90088994  Si
            atom         9.48238464        1.35462636      -12.19163723  Si
            atom         9.48238464        4.06387907       -9.48238451  Si
            atom         9.48238464        6.77313179       -6.77313179  Si
            atom         9.48238464        9.48238451       -4.06387907  Si
            atom        14.90089015       14.90088994        1.35462636  Si
            atom        14.90089015      -14.90088994        4.06387908  Si
            atom        14.90089015      -12.19163723        6.77313179  Si
            atom        14.90089015       -9.48238451        9.48238451  Si
            atom        14.90089015       -6.77313179       12.19163723  Si
            atom        14.90089015       -4.06387908       14.90088994  Si
            atom        14.90089015       -1.35462636      -14.90088994  Si
            atom        14.90089015        1.35462636      -12.19163723  Si
            atom        14.90089015        4.06387907       -9.48238451  Si
            atom        14.90089015        6.77313179       -6.77313179  Si
            atom        14.90089015        9.48238451       -4.06387907  Si
            atom        14.90089015       12.19163723       -1.35462636  Si
            atom       -14.90089015       14.90088994        4.06387908  Si
            atom       -14.90089015      -14.90088994        6.77313179  Si
            atom       -14.90089015      -12.19163723        9.48238451  Si
            atom       -14.90089015       -9.48238451       12.19163723  Si
            atom       -14.90089015       -6.77313179       14.90088994  Si
            atom       -14.90089015       -4.06387907      -14.90088994  Si
            atom       -14.90089015       -1.35462636      -12.19163723  Si
            atom       -14.90089015        1.35462636       -9.48238451  Si
            atom       -14.90089015        4.06387908       -6.77313179  Si
            atom       -14.90089015        6.77313179       -4.06387908  Si
            atom       -14.90089015        9.48238451       -1.35462636  Si
            atom       -14.90089015       12.19163723        1.35462636  Si
            atom       -12.19163740       14.90088994        6.77313179  Si
            atom       -12.19163739      -14.90088994        9.48238451  Si
            atom       -12.19163739      -12.19163723       12.19163723  Si
            atom       -12.19163739       -9.48238451       14.90088994  Si
            atom       -12.19163740       -6.77313179      -14.90088994  Si
            atom       -12.19163740       -4.06387907      -12.19163723  Si
            atom       -12.19163740       -1.35462636       -9.48238451  Si
            atom       -12.19163740        1.35462636       -6.77313179  Si
            atom       -12.19163740        4.06387908       -4.06387908  Si
            atom       -12.19163740        6.77313179       -1.35462636  Si
            atom       -12.19163740        9.48238451        1.35462636  Si
            atom       -12.19163740       12.19163723        4.06387908  Si
            atom        -9.48238464       14.90088994        9.48238451  Si
            atom        -9.48238464      -14.90088994       12.19163723  Si
            atom        -9.48238464      -12.19163723       14.90088994  Si
            atom        -9.48238464       -9.48238451      -14.90088994  Si
            atom        -9.48238464       -6.77313179      -12.19163723  Si
            atom        -9.48238464       -4.06387908       -9.48238451  Si
            atom        -9.48238464       -1.35462636       -6.77313179  Si
            atom        -9.48238464        1.35462636       -4.06387908  Si
            atom        -9.48238464        4.06387908       -1.35462636  Si
            atom        -9.48238464        6.77313179        1.35462636  Si
            atom        -9.48238464        9.48238451        4.06387908  Si
            atom        -9.48238464       12.19163723        6.77313179  Si
            atom        -6.77313189       14.90088994       12.19163723  Si
            atom        -6.77313189      -14.90088994       14.90088994  Si
            atom        -6.77313189      -12.19163723      -14.90088994  Si
            atom        -6.77313189       -9.48238451      -12.19163723  Si
            atom        -6.77313189       -6.77313179       -9.48238451  Si
            atom        -6.77313189       -4.06387908       -6.77313179  Si
            atom        -6.77313189       -1.35462636       -4.06387908  Si
            atom        -6.77313189        1.35462636       -1.35462636  Si
            atom        -6.77313189        4.06387908        1.35462636  Si
            atom        -6.77313189        6.77313179        4.06387908  Si
            atom        -6.77313189        9.48238451        6.77313179  Si
            atom        -6.77313189       12.19163723        9.48238451  Si
            atom        -4.06387913       14.90088994       14.90088994  Si
            atom        -4.06387913      -14.90088994      -14.90088994  Si
            atom        -4.06387913      -12.19163723      -12.19163723  Si
            atom        -4.06387913       -9.48238451       -9.48238451  Si
            atom        -4.06387913       -6.77313179       -6.77313179  Si
            atom        -4.06387913       -4.06387908       -4.06387908  Si
            atom        -4.06387913       -1.35462636       -1.35462636  Si
            atom        -4.06387913        1.35462636        1.35462636  Si
            atom        -4.06387913        4.06387908        4.06387908  Si
            atom        -4.06387913        6.77313179        6.77313179  Si
            atom        -4.06387913        9.48238451        9.48238451  Si
            atom        -4.06387913       12.19163723       12.19163723  Si
            atom        -1.35462638       14.90088994      -14.90088994  Si
            atom        -1.35462638      -14.90088994      -12.19163723  Si
            atom        -1.35462638      -12.19163723       -9.48238451  Si
            atom        -1.35462638       -9.48238451       -6.77313179  Si
            atom        -1.35462638       -6.77313179       -4.06387908  Si
            atom        -1.35462638       -4.06387908       -1.35462636  Si
            atom        -1.35462638       -1.35462636        1.35462636  Si
            atom        -1.35462638        1.35462636        4.06387908  Si
            atom        -1.35462638        4.06387908        6.77313179  Si
            atom        -1.35462638        6.77313179        9.48238451  Si
            atom        -1.35462638        9.48238451       12.19163723  Si
            atom        -1.35462638       12.19163723       14.90088994  Si
            atom         1.35462638       14.90088994      -12.19163723  Si
            atom         1.35462638      -14.90088994       -9.48238451  Si
            atom         1.35462638      -12.19163723       -6.77313179  Si
            atom         1.35462638       -9.48238451       -4.06387908  Si
            atom         1.35462638       -6.77313179       -1.35462636  Si
            atom         1.35462638       -4.06387908        1.35462636  Si
            atom         1.35462638       -1.35462636        4.06387908  Si
            atom         1.35462638        1.35462636        6.77313179  Si
            atom         1.35462638        4.06387908        9.48238451  Si
            atom         1.35462638        6.77313179       12.19163723  Si
            atom         1.35462638        9.48238451       14.90088994  Si
            atom         1.35462638       12.19163723      -14.90088994  Si
            atom         4.06387913       14.90088994       -9.48238451  Si
            atom         4.06387913      -14.90088994       -6.77313179  Si
            atom         4.06387913      -12.19163723       -4.06387908  Si
            atom         4.06387913       -9.48238451       -1.35462636  Si
            atom         4.06387913       -6.77313179        1.35462636  Si
            atom         4.06387913       -4.06387908        4.06387908  Si
            atom         4.06387913       -1.35462636        6.77313179  Si
            atom         4.06387913        1.35462636        9.48238451  Si
            atom         4.06387913        4.06387908       12.19163723  Si
            atom         4.06387913        6.77313179       14.90088994  Si
            atom         4.06387913        9.48238451      -14.90088994  Si
            atom         4.06387913       12.19163723      -12.19163723  Si
            atom         6.77313189       14.90088994       -6.77313179  Si
            atom         6.77313189      -14.90088994       -4.06387908  Si
            atom         6.77313189      -12.19163723       -1.35462636  Si
            atom         6.77313189       -9.48238451        1.35462636  Si
            atom         6.77313189       -6.77313179        4.06387908  Si
            atom         6.77313189       -4.06387908        6.77313179  Si
            atom         6.77313189       -1.35462636        9.48238451  Si
            atom         6.77313189        1.35462636       12.19163723  Si
            atom         6.77313189        4.06387908       14.90088994  Si
            atom         6.77313189        6.77313179      -14.90088994  Si
            atom         6.77313189        9.48238451      -12.19163723  Si
            atom         6.77313189       12.19163723       -9.48238451  Si
            atom         9.48238464       14.90088994       -4.06387907  Si
            atom         9.48238464      -14.90088994       -1.35462636  Si
            atom         9.48238464      -12.19163723        1.35462636  Si
            atom         9.48238464       -9.48238451        4.06387908  Si
            atom         9.48238464       -6.77313179        6.77313179  Si
            atom         9.48238464       -4.06387908        9.48238451  Si
            atom         9.48238464       -1.35462636       12.19163723  Si
            atom         9.48238464        1.35462636       14.90088994  Si
            atom         9.48238464        4.06387907      -14.90088994  Si
            atom         9.48238464        6.77313179      -12.19163723  Si
            atom         9.48238464        9.48238451       -9.48238451  Si
            atom         9.48238464       12.19163723       -6.77313179  Si
            atom        12.19163739       14.90088994       -1.35462636  Si
            atom        12.19163740      -14.90088994        1.35462636  Si
            atom        12.19163740      -12.19163723        4.06387908  Si
            atom        12.19163740       -9.48238451        6.77313179  Si
            atom        12.19163740       -6.77313179        9.48238451  Si
            atom        12.19163740       -4.06387908       12.19163723  Si
            atom        12.19163740       -1.35462636       14.90088994  Si
            atom        12.19163739        1.35462636      -14.90088994  Si
            atom        12.19163739        4.06387907      -12.19163723  Si
            atom        12.19163739        6.77313179       -9.48238451  Si
            atom        12.19163739        9.48238451       -6.77313179  Si
            atom        12.19163739       12.19163723       -4.06387907  Si
 ------------------------------------------------------------------------
  @ DRIVER MODE: Message from server: STATUS      
  @ DRIVER MODE: Message from server: GETFORCE    
  @ DRIVER MODE: Returning v,forces,stress 

  Starting with the calculation of the polarization:

------------------------------------------------------------------------------
  Final output of selected total energy values:

  The following output summarizes some interesting total energy values
  at the end of a run (AFTER all relaxation, molecular dynamics, etc.).

  | Total energy of the DFT / Hartree-Fock s.c.f. calculation      :      -13606466.630171699 eV
  | Final zero-broadening corrected energy (caution - metals only) :      -13606466.630171699 eV
  | For reference only, the value of 1 Hartree used in FHI-aims is :             27.211384500 eV
  | For reference only, the overall average (free atom contribution
  | + realspace contribution) of the electrostatic potential after
  | s.c.f. convergence is                                          :            -12.947564064 eV

  Before relying on these values, please be sure to understand exactly which
  total energy value is referred to by a given number. Different objects may
  all carry the same name 'total energy'. Definitions:

  Total energy of the DFT / Hartree-Fock s.c.f. calculation:
  | Note that this energy does not include ANY quantities calculated after the
  | s.c.f. cycle, in particular not ANY RPA, MP2, etc. many-body perturbation terms.

  Final zero-broadening corrected energy:
  | For metallic systems only, a broadening of the occupation numbers at the Fermi
  | level can be extrapolated back to zero broadening by an electron-gas inspired
  | formula. For all systems that are not real metals, this value can be
  | meaningless and should be avoided.

------------------------------------------------------------------------------
  Methods described in the following list of references were used in this FHI-aims run.
  If you publish the results, please make sure to cite these reference if they apply.
  FHI-aims is an academic code, and for our developers (often, Ph.D. students
  and postdocs), scientific credit in the community is essential.
  Thank you for helping us!

  For any use of FHI-aims, please cite:

    Volker Blum, Ralf Gehrke, Felix Hanke, Paula Havu, Ville Havu,
    Xinguo Ren, Karsten Reuter, and Matthias Scheffler
    'Ab initio molecular simulations with numeric atom-centered orbitals'
    Computer Physics Communications 180, 2175-2196 (2009)
    http://dx.doi.org/10.1016/j.cpc.2009.06.022


  The provided symmetry information was generated with SPGlib:

    Atsushi Togo, Yusuke Seto, Dimitar Pashov
    SPGlib 1.7.3 obtained from http://spglib.sourceforge.net
    Copyright (C) 2008 Atsushi Togo


  The ELSI infrastructure was used in your run to solve the Kohn-Sham electronic structure.
  Please check out http://elsi-interchange.org to learn more.
  If scalability is important for your project, please acknowledge ELSI by citing:

    V. W-z. Yu, F. Corsetti, A. Garcia, W. P. Huhn, M. Jacquelin, W. Jia,
    B. Lange, L. Lin, J. Lu, W. Mi, A. Seifitokaldani, A. Vazquez-Mayagoitia,
    C. Yang, H. Yang, and V. Blum
    'ELSI: A unified software interface for Kohn-Sham electronic structure solvers'
    Computer Physics Communications 222, 267-285 (2018).
    http://dx.doi.org/10.1016/j.cpc.2017.09.007


  For the real-space grid partitioning and parallelization used in this calculation, please cite:

    Ville Havu, Volker Blum, Paula Havu, and Matthias Scheffler,
    'Efficient O(N) integration for all-electron electronic structure calculation'
    'using numerically tabulated basis functions'
    Journal of Computational Physics 228, 8367-8379 (2009).
    http://dx.doi.org/10.1016/j.jcp.2009.08.008

  Of course, there are many other important community references, e.g., those cited in the
  above references. Our list is limited to references that describe implementations in the
  FHI-aims code. The reason is purely practical (length of this list) - please credit others as well.

 *********************************************************************
   Your are running FHI-aims on many cores. To achieve optimal
   performance for your particular architecture, it might be necessary
   to tune the following compilation and calculation settings:
    * Choosing the right Scalapack and MPI Libraries for your
       architecture is essential. If in doubt, refer to the
       documentation or the sysadmin of your supercomputer.
    * Please review our documentation of Makefile choices, particularly
       for ELPA, in the manual.
    * Some of the following FHI-aims keywords or combination thereof
       may be helpful:
        - FHI-aims setting: collect_eigenvectors .false.
        - FHI-aims setting: use_local_index .true.
        - FHI-aims setting: load_balancing .true.
        - FHI-aims setting: use_alltoall .false.
        - FHI-aims setting: elpa_settings two_step_solver
   Be mindful that the usefulness of these keywords can depend on your
   actual run and on the actual computer you are using. Please check
   their description in the manual and perform specific benchmarks to
   determine what is optimal for your computer. More detailed
   information and examples can be found at:
 http://aimsclub.fhi-berlin.mpg.de/wiki/index.php/Large_scale_settings
 *********************************************************************

------------------------------------------------------------
          Leaving FHI-aims.
          Date     :  20200805, Time     :  175019.486

          Computational steps:
          | Number of self-consistency cycles          :           29
          | Number of SCF (re)initializations          :            1

          Detailed time accounting                     :  max(cpu_time)    wall_clock(cpu1)
          | Total time                                 :      700.748 s         701.840 s
          | Preparation time                           :        0.131 s           1.427 s
          | Boundary condition initalization           :       10.542 s          10.566 s
          | Grid partitioning                          :        2.496 s           2.503 s
          | Preloading free-atom quantities on grid    :        1.682 s           1.679 s
          | Free-atom superposition energy             :        0.216 s           0.216 s
          | Total time for integrations                :       12.309 s          12.251 s
          | Total time for solution of K.-S. equations :      498.116 s         498.020 s
          | Total time for density & force components  :       58.306 s          57.067 s
          | Total time for mixing & preconditioning    :       28.977 s          29.035 s
          | Total time for Hartree multipole update    :        7.446 s           7.464 s
          | Total time for Hartree multipole sum       :       65.791 s          65.926 s
          | Total time for total energy evaluation     :        0.190 s           0.296 s
          | Total time for scaled ZORA corrections     :        0.000 s           0.000 s

          Partial memory accounting:
          | Residual value for overall tracked memory usage across tasks:     0.000000 MB (should be 0.000000 MB)
          | Peak values for overall tracked memory usage:
          |   Minimum:       22.100 MB (on task 1358 after allocating d_wave)
          |   Maximum:       24.720 MB (on task  455 after allocating d_wave)
          |   Average:       23.360 MB
          | Largest tracked array allocation:
          |   Minimum:        6.999 MB (atom_atom_dist_list on task    0)
          |   Maximum:        6.999 MB (atom_atom_dist_list on task    0)
          |   Average:        6.999 MB
          Note:  These values currently only include a subset of arrays which are explicitly tracked.
          The "true" memory usage will be greater.

          Have a nice day.
------------------------------------------------------------
