------------------------------------------------------------
          Invoking FHI-aims ...

          When using FHI-aims, please cite the following reference:

            Volker Blum, Ralf Gehrke, Felix Hanke, Paula Havu,
            Ville Havu, Xinguo Ren, Karsten Reuter, and Matthias Scheffler,
            'Ab Initio Molecular Simulations with Numeric Atom-Centered Orbitals',
            Computer Physics Communications 180, 2175-2196 (2009)

          In addition, many other developments in FHI-aims are likely important for
          your particular application. If so, please cite them. A partial list of references
          is written at the end of this file. Thank you for giving credit to the authors
          of these developments.

          For general information about FHI-aims please find us at

            https://fhi-aims.org

          Online tutorials can be found at

            https://fhi-aims-club.gitlab.io/tutorials/tutorials-overview/

          For any questions about FHI-aims, please visit our slack channel at

            https://fhi-aims.slack.com

          and our main development and support site at

            https://aims-git.rz-berlin.mpg.de .

          The latter site, in particular, has a wiki to collect information, as well
          as an issue tracker to log discussions, suggest improvements, and report issues
          or bugs. https://aims-git.rz-berlin.mpg.de is also the main development site
          of the project and all new and updated code versions can be obtained there.
          Please send an email to aims-coordinators@fhi-berlin.mpg.de and we will add
          you to these sites. They are for you and everyone is welcome there.

------------------------------------------------------------



  Date     :  20250609, Time     :  184746.822
  Time zero on CPU 1             :   0.923340000000000E-01  s.
  Internal wall clock time zero  :           518726866.822  s.

  FHI-aims created a unique identifier for this run for later identification
  aims_uuid : 50902649-603F-4440-A220-5DC06406D83B

  Build configuration of the current instance of FHI-aims
  -------------------------------------------------------
  FHI-aims version      : 240206
  Commit number         : 583c55b2e
  CMake host system     : Darwin-23.4.0
  CMake version         : 3.29.1
  Fortran compiler      : /opt/homebrew/bin/mpif90 (GNU) version 13.2.0
  Fortran compiler flags: -O3 -fallow-argument-mismatch -ffree-line-length-none -framework accelerate
  C compiler            : /opt/homebrew/bin/mpicc (AppleClang) version 15.0.0.15000309
  C compiler flags      : -O3 -framework accelerate
  C++ compiler          : /opt/homebrew/bin/mpic++ (AppleClang) version 15.0.0.15000309
  C++ compiler flags    : -O3 -framework accelerate
  HIP compiler          :
  HIP compiler flags    :
  HIP GPU arch          :
  Using MPI
  Using ScaLAPACK
  Using LibXC
  Using i-PI
  Using RLSY
  Linking against: /Users/carbogno/Codes/2023_Scalapack/libscalapack.a

  Using        8 parallel tasks.
  Task        0 on host ThMac05.local reporting.
  Task        1 on host ThMac05.local reporting.
  Task        2 on host ThMac05.local reporting.
  Task        3 on host ThMac05.local reporting.
  Task        4 on host ThMac05.local reporting.
  Task        5 on host ThMac05.local reporting.
  Task        6 on host ThMac05.local reporting.
  Task        7 on host ThMac05.local reporting.

  Memory overcommitment: We could not find /proc/sys/vm/overcommit_memory on your system.

  Obtaining array dimensions for all initial allocations:
  
  -----------------------------------------------------------------------
  Parsing control.in (first pass over file, find array dimensions only).
  The contents of control.in will be repeated verbatim below
  unless switched off by setting 'verbatim_writeout .false.' .
  in the first line of control.in .
  -----------------------------------------------------------------------
  
  #===============================================================================
  # FHI-aims file: ./control.in
  # Created using the Atomic Simulation Environment (ASE)
  # Mon Jun  9 18:47:46 2025
  #===============================================================================
  xc                                 pw-lda
  compute_forces                     .true.
  k_grid                             2 2 2
  sc_accuracy_rho                    1e-06
  relativistic                       atomic_zora scalar
  output_level                       MD_light
  use_pimd_wrapper                   localhost 10002
  #===============================================================================
  
  ################################################################################
  #
  #  FHI-aims code project
  #  VB, Fritz-Haber Institut, 2009
  #
  #  Suggested "light" defaults for Si atom (to be pasted into control.in file)
  #  Be sure to double-check any results obtained with these settings for post-processing,
  #  e.g., with the "tight" defaults and larger basis sets.
  #
  #  2020/09/08 Added f function to "light" after reinspection of Delta test outcomes.
  #             This was done for all of Al-Cl and is a tricky decision since it makes
  #             "light" calculations measurably more expensive for these elements.
  #             Nevertheless, outcomes for P, S, Cl (and to some extent, Si) appear
  #             to justify this choice.
  #
  ################################################################################
    species        Si
  #     global species definitions
      nucleus             14
      mass                28.0855
  #
      l_hartree           4
  #
      cut_pot             3.5          1.5  1.0
      basis_dep_cutoff    1e-4
  #
      radial_base         42 5.0
      radial_multiplier   1
      angular_grids       specified
        division   0.5866   50
        division   0.9616  110
        division   1.2249  194
        division   1.3795  302
  #      division   1.4810  434
  #      division   1.5529  590
  #      division   1.6284  770
  #      division   1.7077  974
  #      division   2.4068 1202
  #      outer_grid   974
        outer_grid 302
  ################################################################################
  #
  #  Definition of "minimal" basis
  #
  ################################################################################
  #     valence basis states
      valence      3  s   2.
      valence      3  p   2.
  #     ion occupancy
      ion_occ      3  s   1.
      ion_occ      3  p   1.
  ################################################################################
  #
  #  Suggested additional basis functions. For production calculations,
  #  uncomment them one after another (the most important basis functions are
  #  listed first).
  #
  #  Constructed for dimers: 1.75 A, 2.0 A, 2.25 A, 2.75 A, 3.75 A
  #
  ################################################################################
  #  "First tier" - improvements: -571.96 meV to -37.03 meV
       hydro 3 d 4.2
       hydro 2 p 1.4
       hydro 4 f 6.2
       ionic 3 s auto
  #  "Second tier" - improvements: -16.76 meV to -3.03 meV
  #     hydro 3 d 9
  #     hydro 5 g 9.4
  #     hydro 4 p 4
  #     hydro 1 s 0.65
  #  "Third tier" - improvements: -3.89 meV to -0.60 meV
  #     ionic 3 d auto
  #     hydro 3 s 2.6
  #     hydro 4 f 8.4
  #     hydro 3 d 3.4
  #     hydro 3 p 7.8
  #  "Fourth tier" - improvements: -0.33 meV to -0.11 meV
  #     hydro 2 p 1.6
  #     hydro 5 g 10.8
  #     hydro 5 f 11.2
  #     hydro 3 d 1
  #     hydro 4 s 4.5
  #  Further basis functions that fell out of the optimization - noise
  #  level... < -0.08 meV
  #     hydro 4 d 6.6
  #     hydro 5 g 16.4
  #     hydro 4 d 9
  
  -----------------------------------------------------------------------
  Completed first pass over input file control.in .
  -----------------------------------------------------------------------
  
  
  -----------------------------------------------------------------------
  Parsing geometry.in (first pass over file, find array dimensions only).
  The contents of geometry.in will be repeated verbatim below
  unless switched off by setting 'verbatim_writeout .false.' .
  in the first line of geometry.in .
  -----------------------------------------------------------------------
  
  #=======================================================
  # FHI-aims file: ./geometry.in
  # Created using the Atomic Simulation Environment (ASE)
  # Mon Jun  9 18:47:46 2025
  #=======================================================
  lattice_vector 10.8176651769019987 0.0000000001279989 0.0000000002739995
  lattice_vector 0.0000000001259997 10.8176651485879987 0.0000000002060005
  lattice_vector 0.0000000002740004 0.0000000002040004 10.8176651484619999
  atom_frac 0.0009244139009089 0.0000000000067500 0.0000000000032500 Si
  atom_frac 0.0000000000060000 0.2500000000067500 0.2500000000032500 Si
  atom_frac 0.0000000000060000 0.5000000000067500 0.5000000000032500 Si
  atom_frac 0.0000000000060000 0.7500000000067500 0.7500000000032498 Si
  atom_frac 0.2500000000060000 0.0000000000067500 0.2500000000032500 Si
  atom_frac 0.2500000000060000 0.2500000000067500 0.5000000000032500 Si
  atom_frac 0.2500000000060000 0.5000000000067499 0.7500000000032498 Si
  atom_frac 0.2500000000060000 0.7500000000067500 0.0000000000032498 Si
  atom_frac 0.5000000000059999 0.0000000000067500 0.5000000000032500 Si
  atom_frac 0.5000000000059999 0.2500000000067500 0.7500000000032498 Si
  atom_frac 0.5000000000059999 0.5000000000067499 0.0000000000032498 Si
  atom_frac 0.5000000000059999 0.7500000000067500 0.2500000000032498 Si
  atom_frac 0.7500000000059999 0.0000000000067500 0.7500000000032498 Si
  atom_frac 0.7500000000059999 0.2500000000067500 0.0000000000032501 Si
  atom_frac 0.7500000000059999 0.5000000000067499 0.2500000000032498 Si
  atom_frac 0.7500000000059999 0.7500000000067500 0.5000000000032498 Si
  atom_frac 0.2500000000060000 0.2500000000067500 0.0000000000032500 Si
  atom_frac 0.2500000000060000 0.5000000000067499 0.2500000000032500 Si
  atom_frac 0.2500000000060000 0.7500000000067500 0.5000000000032500 Si
  atom_frac 0.2500000000060000 0.0000000000067499 0.7500000000032498 Si
  atom_frac 0.5000000000059999 0.2500000000067500 0.2500000000032500 Si
  atom_frac 0.5000000000059999 0.5000000000067500 0.5000000000032500 Si
  atom_frac 0.5000000000059999 0.7500000000067500 0.7500000000032498 Si
  atom_frac 0.5000000000059999 0.0000000000067499 0.0000000000032498 Si
  atom_frac 0.7500000000059996 0.2500000000067500 0.5000000000032500 Si
  atom_frac 0.7500000000059999 0.5000000000067499 0.7500000000032498 Si
  atom_frac 0.7500000000059999 0.7500000000067500 0.0000000000032498 Si
  atom_frac 0.7500000000059999 0.0000000000067499 0.2500000000032498 Si
  atom_frac 0.0000000000060001 0.2500000000067500 0.7500000000032498 Si
  atom_frac 0.0000000000060001 0.5000000000067499 0.0000000000032501 Si
  atom_frac 0.0000000000060001 0.7500000000067500 0.2500000000032498 Si
  atom_frac 0.0000000000060001 0.0000000000067499 0.5000000000032498 Si
  atom_frac 0.1249999999940000 0.1249999999932500 0.1249999999967500 Si
  atom_frac 0.1249999999940000 0.3749999999932500 0.3749999999967500 Si
  atom_frac 0.1249999999940000 0.6249999999932502 0.6249999999967500 Si
  atom_frac 0.1249999999940000 0.8749999999932503 0.8749999999967500 Si
  atom_frac 0.3749999999940000 0.1249999999932500 0.3749999999967500 Si
  atom_frac 0.3749999999940000 0.3749999999932501 0.6249999999967499 Si
  atom_frac 0.3749999999940000 0.6249999999932502 0.8749999999967500 Si
  atom_frac 0.3749999999940000 0.8749999999932502 0.1249999999967499 Si
  atom_frac 0.6249999999940001 0.1249999999932500 0.6249999999967500 Si
  atom_frac 0.6249999999940000 0.3749999999932501 0.8749999999967500 Si
  atom_frac 0.6249999999939999 0.6249999999932502 0.1249999999967502 Si
  atom_frac 0.6249999999939999 0.8749999999932500 0.3749999999967502 Si
  atom_frac 0.8749999999939998 0.1249999999932500 0.8749999999967500 Si
  atom_frac 0.8749999999939999 0.3749999999932501 0.1249999999967499 Si
  atom_frac 0.8749999999939998 0.6249999999932501 0.3749999999967499 Si
  atom_frac 0.8749999999939999 0.8749999999932502 0.6249999999967499 Si
  atom_frac 0.3749999999940000 0.3749999999932501 0.1249999999967500 Si
  atom_frac 0.3749999999939999 0.6249999999932501 0.3749999999967500 Si
  atom_frac 0.3749999999940000 0.8749999999932500 0.6249999999967500 Si
  atom_frac 0.3749999999940000 0.1249999999932501 0.8749999999967500 Si
  atom_frac 0.6249999999939999 0.3749999999932500 0.3749999999967500 Si
  atom_frac 0.6249999999940000 0.6249999999932500 0.6249999999967499 Si
  atom_frac 0.6249999999939999 0.8749999999932500 0.8749999999967500 Si
  atom_frac 0.6249999999939999 0.1249999999932501 0.1249999999967499 Si
  atom_frac 0.8749999999939999 0.3749999999932501 0.6249999999967500 Si
  atom_frac 0.8749999999939999 0.6249999999932501 0.8749999999967500 Si
  atom_frac 0.8749999999939999 0.8749999999932500 0.1249999999967501 Si
  atom_frac 0.8749999999939998 0.1249999999932501 0.3749999999967502 Si
  atom_frac 0.1249999999939999 0.3749999999932501 0.8749999999967500 Si
  atom_frac 0.1249999999939999 0.6249999999932502 0.1249999999967499 Si
  atom_frac 0.1249999999939999 0.8749999999932500 0.3749999999967499 Si
  atom_frac 0.1249999999939999 0.1249999999932501 0.6249999999967499 Si
  
  -----------------------------------------------------------------------
  Completed first pass over input file geometry.in .
  -----------------------------------------------------------------------
  

  Basic array size parameters:
  | Number of species                 :        1
  | Number of atoms                   :       64
  | Number of lattice vectors         :        3
  | Max. basis fn. angular momentum   :        3
  | Max. atomic/ionic basis occupied n:        3
  | Max. number of basis fn. types    :        3
  | Max. radial fns per species/type  :        5
  | Max. logarithmic grid size        :     1346
  | Max. radial integration grid size :       42
  | Max. angular integration grid size:      302
  | Max. angular grid division number :        8
  | Radial grid for Hartree potential :     1346
  | Number of spin channels           :        1

------------------------------------------------------------
          Reading file control.in.
------------------------------------------------------------
  XC: Using Perdew-Wang parametrisation of Ceperley-Alder LDA.
  Forces will be computed.
  Found k-point grid:         2         2         2
  Convergence accuracy of self-consistent charge density:  0.1000E-05
  Scalar relativistic treatment of kinetic energy: on-site free-atom approximation to ZORA.
  Requested output level: MD_light
  Using external wrapper (i-PI) for performing (path integral) molecular dynamics
  **Attention: initial geometry.in file will be ignored!

  Reading configuration options for species Si                  .
  | Found nuclear charge :  14.0000
  | Found atomic mass :    28.085500000000000      amu
  | Found l_max for Hartree potential  :   4
  | Found cutoff potl. onset [A], width [A], scale factor :    3.50000    1.50000    1.00000
  | Threshold for basis-dependent cutoff potential is   0.100000E-03
  | Found data for basic radial integration grid :    42 points, outermost radius =    5.000 A
  | Found multiplier for basic radial grid :   1
  | Found angular grid specification: user-specified.
  | Specified grid contains     5 separate shells.
  | Check grid settings after all constraints further below.
  | Found free-atom valence shell :  3 s   2.000
  | Found free-atom valence shell :  3 p   2.000
  | Found free-ion valence shell :  3 s   1.000
  | Found free-ion valence shell :  3 p   1.000
  | Found hydrogenic basis function :  3 d   4.200
  | Found hydrogenic basis function :  2 p   1.400
  | Found hydrogenic basis function :  4 f   6.200
  | Found ionic basis function :  3 s , default cutoff radius.
  Species Si                  : Missing cutoff potential type.
  Defaulting to exp(1/x)/(1-x)^2 type cutoff potential.
  Species Si: No 'logarithmic' tag. Using default grid for free atom:
  | Default logarithmic grid data [bohr] : 0.1000E-03 0.1000E+03 0.1012E+01
  | Will include ionic basis functions of  2.0-fold positive Si                   ion.
  Species Si: On-site basis accuracy parameter (for Gram-Schmidt orthonormalisation) not specified.
  Using default value basis_acc =  0.1000000E-03.
  Species Si                  : Using default innermost maximum threshold i_radial=  2 for radial functions.
  Species Si                  : Default cutoff onset for free atom density etc. : 0.35000000E+01 AA.
  Species Si                  : Basic radial grid will be enhanced according to radial_multiplier =   1, to contain    42 grid points.

  Finished reading input file 'control.in'.

------------------------------------------------------------


------------------------------------------------------------
          Reading geometry description geometry.in.
------------------------------------------------------------
  | The smallest distance between any two atoms is         2.33633397 AA.
  | The first atom of this pair is atom number                      1 .
  | The second atom of this pair is atom number                    33 .
  | Wigner-Seitz cell of the first atom image           0     0     0 .
  | (The Wigner-Seitz cell of the second atom is 0 0 0  by definition.)

  Symmetry information by spglib:
  | Precision set to  0.1E-04
  | Number of Operations  : 4
  | Space group           : 35
  | International         : Cmm2
  | Schoenflies           : C2v^11
  Input structure read successfully.
  The structure contains       64 atoms,  and a total of        896.000 electrons.

  Input geometry:
  | Unit cell:
  |       10.81766518        0.00000000        0.00000000
  |        0.00000000       10.81766515        0.00000000
  |        0.00000000        0.00000000       10.81766515
  | Atomic structure:
  |       Atom                x [A]            y [A]            z [A]
  |    1: Species Si            0.01000000        0.00000000        0.00000000
  |    2: Species Si            0.00000000        2.70441629        2.70441629
  |    3: Species Si            0.00000000        5.40883257        5.40883257
  |    4: Species Si            0.00000000        8.11324886        8.11324886
  |    5: Species Si            2.70441629        0.00000000        2.70441629
  |    6: Species Si            2.70441629        2.70441629        5.40883257
  |    7: Species Si            2.70441629        5.40883257        8.11324886
  |    8: Species Si            2.70441629        8.11324886        0.00000000
  |    9: Species Si            5.40883259        0.00000000        5.40883257
  |   10: Species Si            5.40883259        2.70441629        8.11324886
  |   11: Species Si            5.40883259        5.40883257        0.00000000
  |   12: Species Si            5.40883259        8.11324886        2.70441629
  |   13: Species Si            8.11324888        0.00000000        8.11324886
  |   14: Species Si            8.11324888        2.70441629        0.00000000
  |   15: Species Si            8.11324888        5.40883257        2.70441629
  |   16: Species Si            8.11324888        8.11324886        5.40883257
  |   17: Species Si            2.70441629        2.70441629        0.00000000
  |   18: Species Si            2.70441629        5.40883257        2.70441629
  |   19: Species Si            2.70441629        8.11324886        5.40883257
  |   20: Species Si            2.70441629        0.00000000        8.11324886
  |   21: Species Si            5.40883259        2.70441629        2.70441629
  |   22: Species Si            5.40883259        5.40883257        5.40883257
  |   23: Species Si            5.40883259        8.11324886        8.11324886
  |   24: Species Si            5.40883259        0.00000000        0.00000000
  |   25: Species Si            8.11324888        2.70441629        5.40883257
  |   26: Species Si            8.11324888        5.40883257        8.11324886
  |   27: Species Si            8.11324888        8.11324886        0.00000000
  |   28: Species Si            8.11324888        0.00000000        2.70441629
  |   29: Species Si            0.00000000        2.70441629        8.11324886
  |   30: Species Si            0.00000000        5.40883257        0.00000000
  |   31: Species Si            0.00000000        8.11324886        2.70441629
  |   32: Species Si            0.00000000        0.00000000        5.40883257
  |   33: Species Si            1.35220815        1.35220814        1.35220814
  |   34: Species Si            1.35220815        4.05662443        4.05662443
  |   35: Species Si            1.35220815        6.76104072        6.76104072
  |   36: Species Si            1.35220815        9.46545701        9.46545701
  |   37: Species Si            4.05662444        1.35220814        4.05662443
  |   38: Species Si            4.05662444        4.05662443        6.76104072
  |   39: Species Si            4.05662444        6.76104072        9.46545701
  |   40: Species Si            4.05662444        9.46545701        1.35220814
  |   41: Species Si            6.76104074        1.35220814        6.76104072
  |   42: Species Si            6.76104074        4.05662443        9.46545701
  |   43: Species Si            6.76104074        6.76104072        1.35220814
  |   44: Species Si            6.76104074        9.46545701        4.05662443
  |   45: Species Si            9.46545703        1.35220814        9.46545701
  |   46: Species Si            9.46545703        4.05662443        1.35220814
  |   47: Species Si            9.46545703        6.76104072        4.05662443
  |   48: Species Si            9.46545703        9.46545701        6.76104072
  |   49: Species Si            4.05662444        4.05662443        1.35220814
  |   50: Species Si            4.05662444        6.76104072        4.05662443
  |   51: Species Si            4.05662444        9.46545701        6.76104072
  |   52: Species Si            4.05662444        1.35220814        9.46545700
  |   53: Species Si            6.76104074        4.05662443        4.05662443
  |   54: Species Si            6.76104074        6.76104072        6.76104072
  |   55: Species Si            6.76104074        9.46545701        9.46545701
  |   56: Species Si            6.76104074        1.35220814        1.35220814
  |   57: Species Si            9.46545703        4.05662443        6.76104072
  |   58: Species Si            9.46545703        6.76104072        9.46545701
  |   59: Species Si            9.46545703        9.46545701        1.35220814
  |   60: Species Si            9.46545703        1.35220814        4.05662443
  |   61: Species Si            1.35220815        4.05662443        9.46545700
  |   62: Species Si            1.35220815        6.76104072        1.35220814
  |   63: Species Si            1.35220815        9.46545701        4.05662443
  |   64: Species Si            1.35220815        1.35220814        6.76104072

  Lattice parameters for 3D lattice (in Angstroms) :    10.817665   10.817665   10.817665
  Angle(s) between unit vectors (in degrees)       :    90.000000   90.000000   90.000000


  Quantities derived from the lattice vectors (in Angstrom^-1):
  | Reciprocal lattice vector 1:  0.580826 -0.000000 -0.000000
  | Reciprocal lattice vector 2: -0.000000  0.580826 -0.000000
  | Reciprocal lattice vector 3: -0.000000 -0.000000  0.580826
  | Unit cell volume                               :   0.126590E+04  Angstrom^3

  Slab Identifier: This seems to be a bulk system.

  Finished reading input file 'geometry.in'.



  Consistency checks for stacksize environment parameter are next.

  | Maximum stacksize for task 0: 63 [Mb]
  | Maximum stacksize for task 1: 63 [Mb]
  | Maximum stacksize for task 2: 63 [Mb]
  | Maximum stacksize for task 3: 63 [Mb]
  | Maximum stacksize for task 4: 63 [Mb]
  | Maximum stacksize for task 5: 63 [Mb]
  | Maximum stacksize for task 6: 63 [Mb]
  | Maximum stacksize for task 7: 63 [Mb]
   *** Stacksize is not set to unlimited. This might cause problems...
  | Current stacksize for task 0: 63 [Mb]
  | Current stacksize for task 1: 63 [Mb]
  | Current stacksize for task 2: 63 [Mb]
  | Current stacksize for task 3: 63 [Mb]
  | Current stacksize for task 4: 63 [Mb]
  | Current stacksize for task 5: 63 [Mb]
  | Current stacksize for task 6: 63 [Mb]
  | Current stacksize for task 7: 63 [Mb]

  Consistency checks for the contents of control.in are next.

  MPI_IN_PLACE appears to work with this MPI implementation.
  | Keeping use_mpi_in_place .true. (see manual).
  Target number of points in a grid batch is not set. Defaulting to  100
  Method for grid partitioning is not set. Defaulting to parallel hash+maxmin partitioning.
  Batch size limit is not set. Defaulting to    200
  By default, will store active basis functions for each batch.
  If in need of memory, prune_basis_once .false. can be used to disable this option.
  communication_type for Hartree potential was not specified.
  Defaulting to calc_hartree .
  Defaulting to Pulay charge density mixer.
  Pulay mixer: Number of relevant iterations not set.
  Defaulting to    8 iterations.
  Pulay mixer: Number of initial linear mixing iterations not set.
  Defaulting to    0 iterations.
  Work space size for distributed Hartree potential not set.
  Defaulting to   0.200000E+03 MB.
  Mixing parameter for charge density mixing has not been set.
  Using default: charge_mix_param =     0.0500.
  The mixing parameter will be adjusted in iteration number     2 of the first full s.c.f. cycle only.
  Algorithm-dependent basis array size parameters:
  | n_max_pulay                         :        8
  Maximum number of self-consistency iterations not provided.
  Presetting  1000 iterations.
  Presetting      1001 iterations before the initial mixing cycle
  is restarted anyway using the sc_init_iter criterion / keyword.
  Presetting a factor      1.000 between actual scf density residual
  and density convergence criterion sc_accuracy_rho below which sc_init_iter
  takes no effect.
  Geometry relaxation not requested: no relaxation will be performed.
  Forces evaluation will include force correction term due to incomplete self-consistency (default).
  Force calculation: scf convergence accuracy of forces not set.
  Defaulting to 'sc_accuracy_forces not_checked'.
  Handling of forces: Unphysical translation and rotation will be removed from forces.
  No accuracy limit for integral partition fn. given. Defaulting to  0.1000E-14.
  No threshold value for u(r) in integrations given. Defaulting to  0.1000E-05.
  No occupation type (smearing scheme) given. Defaulting to Gaussian broadening, width =  0.1000E-01 eV.
  The width will be adjusted in iteration number     2 of the first full s.c.f. cycle only.
  S.C.F. convergence parameters will be adjusted in iteration number     2 of the first full s.c.f. cycle only.
  No accuracy for occupation numbers given. Defaulting to  0.1000E-12.
  No threshold value for occupation numbers given. Defaulting to  0.0000E+00.
  No accuracy for fermi level given. Defaulting to  0.1000E-19.
  Maximum # of iterations to find E_F not set. Defaulting to  200.
  Preferred method for the eigenvalue solver ('KS_method') not specified in 'control.in'.
  Defaulting to serial version, LAPACK (via ELSI), since more k-points than CPUs available.
  Will not use alltoall communication since running on < 1024 CPUs.
  Threshold for basis singularities not set.
  Default threshold for basis singularities:  0.1000E-04
  partition_type (choice of integration weights) for integrals was not specified.
  | Using a version of the partition function of Stratmann and coworkers ('stratmann_sparse').
  | At each grid point, the set of atoms used to build the partition table is smoothly restricted to
  | only those atoms whose free-atom density would be non-zero at that grid point.
  Partitioning for Hartree potential was not defined. Using partition_type for integrals.
  | Adjusted default value of keyword multip_moments_threshold to:       0.10000000E-11
  | This value may affect high angular momentum components of the Hartree potential in periodic systems.
  Spin handling was not defined in control.in. Defaulting to unpolarized case.
  No q(lm)/r^(l+1) cutoff set for long-range Hartree potential.
  | Using default value of  0.100000E-09 .
  | Verify using the multipole_threshold keyword.
  Defaulting to new monopole extrapolation.
  Density update method: automatic selection selected.
  Using density matrix based charge density update.
  Using density matrix based charge density update.
  Using packed matrix style: index .
  Defaulting to use time-reversal symmetry for k-point grid.
  Charge integration errors on the 3D integration grid will be compensated
  by explicit normalization and distribution of residual charges.
  Use the "compensate_multipole_errors" flag to change this behaviour.
  Set 'collect_eigenvectors' to be '.true.' for all serial calculations. This is mandatory.
  Set 'collect_eigenvectors' to be '.true.' for KS_method lapack_fast and serial.

  Consistency checks for the contents of geometry.in are next.


  Range separation radius for Ewald summation (hartree_convergence_parameter):      3.87147161 bohr.
  Number of empty states per atom not set in control.in - providing a guess from actual geometry.
  | Total number of empty states used during s.c.f. cycle:      192
  If you use a very high smearing, use empty_states (per atom!) in control.in to increase this value.

  Structure-dependent array size parameters: 
  | Maximum number of distinct radial functions  :        9
  | Maximum number of basis functions            :     1600
  | Number of Kohn-Sham states (occupied + empty):      640
------------------------------------------------------------

************************** W A R N I N G *******************************
* You are using the PIMD wrapper. Specifications and positions         *
* in geometry.in will be IGNORED - all is received from the wrapper.   *
* Please make sure species are declared in the same order in           *
* geometry.in and wrapper input.                                       *
************************************************************************


  Performing system and environment tests:
  | Environment variable OMP_NUM_THREADS correctly set to 1.
  | Checking for ScaLAPACK...
  | Testing pdtran()...
  | All pdtran() tests passed.

------------------------------------------------------------
          Preparing all fixed parts of the calculation.
------------------------------------------------------------
  Determining machine precision:
     2.2250738585072014E-308
  Setting up grids for atomic and cluster calculations.

  Creating wave function, potential, and density for free atoms.
  Runtime choices for atomic solver:
  | atomic solver xc        : PW-LDA
  | compute density gradient: 0
  | compute kinetic density : F

  Species: Si

  List of occupied orbitals and eigenvalues:
    n    l              occ      energy [Ha]    energy [eV]
    1    0           2.0000       -65.491668     -1782.1190
    2    0           2.0000        -5.087967      -138.4506
    3    0           2.0000        -0.391471       -10.6525
    2    1           6.0000        -3.502246       -95.3010
    3    1           2.0000        -0.143943        -3.9169


  Adding cutoff potential to free-atom effective potential.
  Creating fixed part of basis set: Ionic, confined, hydrogenic.

  Si                   ion:

  List of free ionic orbitals and eigenvalues:
    n    l      energy [Ha]    energy [eV]
    1    0       -66.364436     -1805.8682
    2    0        -5.935799      -161.5213
    3    0        -1.078166       -29.3384
    2    1        -4.351123      -118.4001
    3    1        -0.781733       -21.2720


  List of ionic basis orbitals and eigenvalues:
    n    l      energy [Ha]    energy [eV]    outer radius [A]
    3    0        -1.078146       -29.3378       4.214062


  Si                   hydrogenic:

  List of hydrogenic basis orbitals: 
    n    l      effective z      eigenvalue [eV]  inner max. [A]     outer max. [A]     outer radius [A]   
    3    2         4.200000       -26.6624           1.139231           1.139231           4.534782
    2    1         1.400000        -6.4613           1.472672           1.472672           4.590560
    4    3         6.200000       -32.6778           1.368518           1.368518           4.534782

  Creating atomic-like basis functions for current effective potential.

  Species Si                  :

  List of atomic basis orbitals and eigenvalues:
    n    l      energy [Ha]    energy [eV]    outer radius [A]
    1    0       -65.491668     -1782.1190       0.789468
    2    0        -5.087967      -138.4506       2.815114
    3    0        -0.391471       -10.6525       4.534782
    2    1        -3.502246       -95.3010       3.259919
    3    1        -0.143943        -3.9169       4.590560

  Assembling full basis from fixed parts.
  | Species Si :   atomic orbital   1 s accepted.
  | Species Si :   atomic orbital   2 s accepted.
  | Species Si :    ionic orbital   3 s accepted.
  | Species Si :   atomic orbital   3 s accepted.
  | Species Si :   atomic orbital   2 p accepted.
  | Species Si :   atomic orbital   3 p accepted.
  | Species Si :    hydro orbital   2 p accepted.
  | Species Si :    hydro orbital   3 d accepted.
  | Species Si :    hydro orbital   4 f accepted.

  Basis size parameters after reduction:
  | Total number of radial functions:        9
  | Total number of basis functions :     1600

  Per-task memory consumption for arrays in subroutine allocate_ext:
  |           3.136536MB.
  Testing on-site integration grid accuracy.
  |  Species  Function  <phi|h_atom|phi> (log., in eV)  <phi|h_atom|phi> (rad., in eV)
           1        1              -1782.1189727076              -1782.1182429251
           1        2               -138.4506350693               -138.4506310079
           1        3                -10.3030408815                -10.3029120678
           1        4                  5.0238999146                  4.9457540310 ***
           1        5                -95.3009689499                -95.3009689315
           1        6                 -3.9266496564                 -3.9420918374
           1        7                  6.3453628447                  6.1632372158 ***
           1        8                  6.2883050744                  6.2861881409
           1        9                 19.3222464920                 19.3177041052
 * Note: Onsite integrals marked "***" above are less accurate than
 * onsite_accuracy_threshold =    0.03000 eV. Usually, this is harmless.
 * When in doubt, tighten the "radial" and/or "radial_multiplier" flags to check.

  Preparing densities etc. for the partition functions (integrals / Hartree potential).

  Preparations completed.
  max(cpu_time)          :      0.087 s.
  Wall clock time (cpu1) :      0.087 s.
------------------------------------------------------------

  Initializing index lists of integration centers etc. from given atomic structure:
  Mapping all atomic coordinates to central unit cell.

  Initializing the k-points
  Using symmetry for reducing the k-points
  | k-points reduced from:        8 to        8
  | Number of k-points                             :         8
  The eigenvectors in the calculations are REAL.
  | K-points in task   0:         1
  | K-points in task   1:         1
  | K-points in task   2:         1
  | K-points in task   3:         1
  | K-points in task   4:         1
  | K-points in task   5:         1
  | K-points in task   6:         1
  | K-points in task   7:         1
  | Number of basis functions in the Hamiltonian integrals :      8807
  | Number of basis functions in a single unit cell        :      1600
  | Number of centers in hartree potential         :      1870
  | Number of centers in hartree multipole         :      1064
  | Number of centers in electron density summation:       746
  | Number of centers in basis integrals           :       854
  | Number of centers in integrals                 :       387
  | Number of centers in hamiltonian               :       746
  | Consuming          3 KiB for k_phase.
  | Number of super-cells (origin) [n_cells]                     :         125
  | Number of super-cells (after PM_index) [n_cells]             :          28
  | Number of super-cells in hamiltonian [n_cells_in_hamiltonian]:          28
  | Size of matrix packed + index [n_hamiltonian_matrix_size] :     2803765
* Skipping the SCF initialization for now - done inside wrapper      *
  @ DRIVER MODE: Connecting to host:port localhost       10002
  @ DRIVER MODE: Message from server: STATUS      
  @ DRIVER MODE: Message from server: POSDATA     
  @ DRIVER MODE: Received positions 

  Initializing index lists of integration centers etc. from given atomic structure:
  Mapping all atomic coordinates to central unit cell.

  Initializing the k-points
  Using symmetry for reducing the k-points
  | k-points reduced from:        8 to        8
  | Number of k-points                             :         8
  The eigenvectors in the calculations are REAL.
  | K-points in task   0:         1
  | K-points in task   1:         1
  | K-points in task   2:         1
  | K-points in task   3:         1
  | K-points in task   4:         1
  | K-points in task   5:         1
  | K-points in task   6:         1
  | K-points in task   7:         1
  | Number of basis functions in the Hamiltonian integrals :      8807
  | Number of basis functions in a single unit cell        :      1600
  | Number of centers in hartree potential         :      1870
  | Number of centers in hartree multipole         :      1064
  | Number of centers in electron density summation:       746
  | Number of centers in basis integrals           :       854
  | Number of centers in integrals                 :       387
  | Number of centers in hamiltonian               :       746
  | Consuming          3 KiB for k_phase.
  | Number of super-cells (origin) [n_cells]                     :         125
  | Number of super-cells (after PM_index) [n_cells]             :          28
  | Number of super-cells in hamiltonian [n_cells_in_hamiltonian]:          28
  | Size of matrix packed + index [n_hamiltonian_matrix_size] :     2803765

------------------------------------------------------------
          Begin self-consistency loop: Initialization.

          Date     :  20250609, Time     :  184747.136
------------------------------------------------------------
  | Estimated reciprocal-space cutoff momentum G_max:         2.41181531 bohr^-1 .
  | Reciprocal lattice points for long-range Hartree potential:    2006
  Partitioning the integration grid into batches with parallel hashing+maxmin method.
  | Number of batches:     4096
  | Maximal batch size:      90
  | Minimal batch size:      85
  | Average batch size:      87.562
  | Standard deviation of batch sizes:       1.500

  Integration load balanced across     8 MPI tasks.
  Work distribution over tasks is as follows:
  Task     0 has      44871 integration points.
  Task     1 has      44785 integration points.
  Task     2 has      44785 integration points.
  Task     3 has      44784 integration points.
  Task     4 has      44870 integration points.
  Task     5 has      44843 integration points.
  Task     6 has      44845 integration points.
  Task     7 has      44873 integration points.
  Initializing partition tables, free-atom densities, potentials, etc. across the integration grid (initialize_grid_storage).
  | initialize_grid_storage: Actual outermost partition radius vs. multipole_radius_free
  | (-- VB: in principle, multipole_radius_free should be larger, hence this output)
  | Species        1: Confinement radius =              4.999999999999999 AA, multipole_radius_free =              5.000694715736543 AA.
  | Species        1: outer_partition_radius set to              5.000694715736543 AA .
  | The sparse table of interatomic distances needs       1289.87 kbyte instead of      5834.53 kbyte of memory.
  | Net number of integration points:   358656
  | of which are non-zero points    :   311196
  | Numerical average free-atom electrostatic potential    :    -13.30251441 eV
  Renormalizing the initial density to the exact electron count on the 3D integration grid.
  | Initial density: Formal number of electrons (from input files) :     896.0000000000
  | Integrated number of electrons on 3D grid     :     896.1664484555
  | Charge integration error                      :       0.1664484555
  | Normalization factor for density and gradient :       0.9998142661
  Renormalizing the free-atom superposition density to the exact electron count on the 3D integration grid.
  | Formal number of electrons (from input files) :     896.0000000000
  | Integrated number of electrons on 3D grid     :     896.1664484555
  | Charge integration error                      :       0.1664484555
  | Normalization factor for density and gradient :       0.9998142661
  Obtaining max. number of non-zero basis functions in each batch (get_n_compute_maxes).
  | Maximal number of non-zero basis functions:      751 in task     0
  | Maximal number of non-zero basis functions:      749 in task     1
  | Maximal number of non-zero basis functions:      726 in task     2
  | Maximal number of non-zero basis functions:      730 in task     3
  | Maximal number of non-zero basis functions:      726 in task     4
  | Maximal number of non-zero basis functions:      739 in task     5
  | Maximal number of non-zero basis functions:      717 in task     6
  | Maximal number of non-zero basis functions:      702 in task     7
  Allocating        7.812 MB for KS_eigenvector
  Integrating Hamiltonian matrix: batch-based integration.
  Time summed over all CPUs for integration: real work       11.106 s, elapsed       11.466 s
  Integrating overlap matrix.
  Time summed over all CPUs for integration: real work        8.409 s, elapsed        8.506 s
  Decreasing sparse matrix size:
  | Tolerance:  0.1000E-12
  Hamiltonian matrix
  | Array has  2537825 nonzero elements out of  2803765 elements
  | Sparsity factor is 0.095
  Overlap matrix
  | Array has  2453592 nonzero elements out of  2803765 elements
  | Sparsity factor is 0.125
  New size of hamiltonian matrix:     2539586

  Updating Kohn-Sham eigenvalues and eigenvectors using ELSI and the (modified) LAPACK eigensolver.

  Obtaining occupation numbers and electronic chemical potential using ELSI.
  | Note that, for insulating systems, the printed 'chemical potential' value is not uniquely defined.
  | It can be anywhere in the energy gap, as long as it correctly separates occupied and unoccupied states.
  | In systems with a gap, the physically relevant chemical potential is the VBM or HOMO.

  | Chemical potential (Fermi level):    -5.63166119 eV
  Writing Kohn-Sham eigenvalues.
  K-point:       1 at    0.000000    0.000000    0.000000 (in units of recip. lattice)

  State    Occupation    Eigenvalue [Ha]    Eigenvalue [eV]
      1       2.00000         -65.514149        -1782.73069
      2       2.00000         -65.514149        -1782.73069
      3       2.00000         -65.514038        -1782.72768
      4       2.00000         -65.514035        -1782.72759
      5       2.00000         -65.514035        -1782.72759
      6       2.00000         -65.514035        -1782.72759
      7       2.00000         -65.514035        -1782.72759
      8       2.00000         -65.514035        -1782.72759
      9       2.00000         -65.514035        -1782.72759
     10       2.00000         -65.514035        -1782.72759
     11       2.00000         -65.514035        -1782.72759
     12       2.00000         -65.514035        -1782.72759
     13       2.00000         -65.514035        -1782.72759
     14       2.00000         -65.514035        -1782.72759
     15       2.00000         -65.514035        -1782.72759
     16       2.00000         -65.514035        -1782.72759
     17       2.00000         -65.514035        -1782.72759
     18       2.00000         -65.514035        -1782.72759
     19       2.00000         -65.514035        -1782.72759
     20       2.00000         -65.514035        -1782.72759
     21       2.00000         -65.514035        -1782.72759
     22       2.00000         -65.514035        -1782.72759
     23       2.00000         -65.514035        -1782.72759
     24       2.00000         -65.514035        -1782.72759
     25       2.00000         -65.514035        -1782.72759
     26       2.00000         -65.514035        -1782.72759
     27       2.00000         -65.514035        -1782.72759
     28       2.00000         -65.514035        -1782.72759
     29       2.00000         -65.514035        -1782.72759
     30       2.00000         -65.514035        -1782.72759
     31       2.00000         -65.514035        -1782.72759
     32       2.00000         -65.514035        -1782.72759
     33       2.00000         -65.514035        -1782.72759
     34       2.00000         -65.514035        -1782.72759
     35       2.00000         -65.514035        -1782.72759
     36       2.00000         -65.514035        -1782.72759
     37       2.00000         -65.514035        -1782.72759
     38       2.00000         -65.514035        -1782.72759
     39       2.00000         -65.514035        -1782.72759
     40       2.00000         -65.514035        -1782.72759
     41       2.00000         -65.514035        -1782.72759
     42       2.00000         -65.514035        -1782.72759
     43       2.00000         -65.514035        -1782.72759
     44       2.00000         -65.514035        -1782.72759
     45       2.00000         -65.514035        -1782.72759
     46       2.00000         -65.514035        -1782.72759
     47       2.00000         -65.514035        -1782.72759
     48       2.00000         -65.514035        -1782.72759
     49       2.00000         -65.514035        -1782.72759
     50       2.00000         -65.514035        -1782.72759
     51       2.00000         -65.514035        -1782.72759
     52       2.00000         -65.514035        -1782.72759
     53       2.00000         -65.514035        -1782.72759
     54       2.00000         -65.514035        -1782.72759
     55       2.00000         -65.514035        -1782.72759
     56       2.00000         -65.514035        -1782.72759
     57       2.00000         -65.514035        -1782.72759
     58       2.00000         -65.514035        -1782.72759
     59       2.00000         -65.514035        -1782.72759
     60       2.00000         -65.514035        -1782.72759
     61       2.00000         -65.514035        -1782.72759
     62       2.00000         -65.514035        -1782.72759
     63       2.00000         -65.513922        -1782.72453
     64       2.00000         -65.513922        -1782.72453
     65       2.00000          -5.115578         -139.20196
     66       2.00000          -5.115557         -139.20140
     67       2.00000          -5.115537         -139.20085
     68       2.00000          -5.115503         -139.19992
     69       2.00000          -5.115503         -139.19992
     70       2.00000          -5.115500         -139.19983
     71       2.00000          -5.115499         -139.19980
     72       2.00000          -5.115495         -139.19969
     73       2.00000          -5.115487         -139.19950
     74       2.00000          -5.115470         -139.19902
     75       2.00000          -5.115470         -139.19902
     76       2.00000          -5.115470         -139.19901
     77       2.00000          -5.115470         -139.19901
     78       2.00000          -5.115470         -139.19901
     79       2.00000          -5.115470         -139.19901
     80       2.00000          -5.115470         -139.19901
     81       2.00000          -5.115470         -139.19901
     82       2.00000          -5.115470         -139.19901
     83       2.00000          -5.115470         -139.19901
     84       2.00000          -5.115470         -139.19901
     85       2.00000          -5.115469         -139.19901
     86       2.00000          -5.115452         -139.19854
     87       2.00000          -5.115449         -139.19844
     88       2.00000          -5.115424         -139.19776
     89       2.00000          -5.115391         -139.19686
     90       2.00000          -5.115390         -139.19684
     91       2.00000          -5.115390         -139.19684
     92       2.00000          -5.115390         -139.19684
     93       2.00000          -5.115390         -139.19684
     94       2.00000          -5.115390         -139.19684
     95       2.00000          -5.115390         -139.19684
     96       2.00000          -5.115390         -139.19684
     97       2.00000          -5.115390         -139.19683
     98       2.00000          -5.115390         -139.19683
     99       2.00000          -5.115390         -139.19683
    100       2.00000          -5.115390         -139.19683
    101       2.00000          -5.115390         -139.19683
    102       2.00000          -5.115390         -139.19683
    103       2.00000          -5.115389         -139.19683
    104       2.00000          -5.115389         -139.19683
    105       2.00000          -5.115356         -139.19592
    106       2.00000          -5.115331         -139.19524
    107       2.00000          -5.115327         -139.19513
    108       2.00000          -5.115310         -139.19466
    109       2.00000          -5.115310         -139.19466
    110       2.00000          -5.115310         -139.19466
    111       2.00000          -5.115310         -139.19466
    112       2.00000          -5.115310         -139.19466
    113       2.00000          -5.115310         -139.19466
    114       2.00000          -5.115310         -139.19465
    115       2.00000          -5.115310         -139.19465
    116       2.00000          -5.115310         -139.19465
    117       2.00000          -5.115310         -139.19465
    118       2.00000          -5.115309         -139.19465
    119       2.00000          -5.115309         -139.19465
    120       2.00000          -5.115292         -139.19418
    121       2.00000          -5.115284         -139.19397
    122       2.00000          -5.115280         -139.19386
    123       2.00000          -5.115279         -139.19383
    124       2.00000          -5.115276         -139.19375
    125       2.00000          -5.115276         -139.19375
    126       2.00000          -5.115242         -139.19281
    127       2.00000          -5.115223         -139.19231
    128       2.00000          -5.115204         -139.19178
    129       2.00000          -3.530013          -96.05655
    130       2.00000          -3.529967          -96.05528
    131       2.00000          -3.529962          -96.05516
    132       2.00000          -3.529959          -96.05508
    133       2.00000          -3.529957          -96.05501
    134       2.00000          -3.529940          -96.05455
    135       2.00000          -3.529931          -96.05432
    136       2.00000          -3.529931          -96.05432
    137       2.00000          -3.529931          -96.05431
    138       2.00000          -3.529931          -96.05431
    139       2.00000          -3.529931          -96.05431
    140       2.00000          -3.529931          -96.05431
    141       2.00000          -3.529931          -96.05431
    142       2.00000          -3.529931          -96.05431
    143       2.00000          -3.529931          -96.05431
    144       2.00000          -3.529931          -96.05431
    145       2.00000          -3.529926          -96.05418
    146       2.00000          -3.529925          -96.05414
    147       2.00000          -3.529924          -96.05413
    148       2.00000          -3.529923          -96.05410
    149       2.00000          -3.529922          -96.05408
    150       2.00000          -3.529921          -96.05403
    151       2.00000          -3.529920          -96.05400
    152       2.00000          -3.529919          -96.05399
    153       2.00000          -3.529918          -96.05396
    154       2.00000          -3.529917          -96.05392
    155       2.00000          -3.529915          -96.05389
    156       2.00000          -3.529915          -96.05387
    157       2.00000          -3.529912          -96.05380
    158       2.00000          -3.529912          -96.05379
    159       2.00000          -3.529905          -96.05361
    160       2.00000          -3.529899          -96.05343
    161       2.00000          -3.529897          -96.05338
    162       2.00000          -3.529894          -96.05329
    163       2.00000          -3.529893          -96.05327
    164       2.00000          -3.529891          -96.05322
    165       2.00000          -3.529885          -96.05307
    166       2.00000          -3.529885          -96.05307
    167       2.00000          -3.529885          -96.05307
    168       2.00000          -3.529884          -96.05304
    169       2.00000          -3.529884          -96.05304
    170       2.00000          -3.529884          -96.05304
    171       2.00000          -3.529884          -96.05304
    172       2.00000          -3.529884          -96.05303
    173       2.00000          -3.529884          -96.05303
    174       2.00000          -3.529882          -96.05298
    175       2.00000          -3.529882          -96.05298
    176       2.00000          -3.529882          -96.05298
    177       2.00000          -3.529882          -96.05298
    178       2.00000          -3.529882          -96.05298
    179       2.00000          -3.529882          -96.05298
    180       2.00000          -3.529882          -96.05298
    181       2.00000          -3.529882          -96.05298
    182       2.00000          -3.529882          -96.05298
    183       2.00000          -3.529882          -96.05298
    184       2.00000          -3.529882          -96.05298
    185       2.00000          -3.529882          -96.05297
    186       2.00000          -3.529868          -96.05260
    187       2.00000          -3.529866          -96.05255
    188       2.00000          -3.529861          -96.05241
    189       2.00000          -3.529858          -96.05231
    190       2.00000          -3.529842          -96.05189
    191       2.00000          -3.529833          -96.05163
    192       2.00000          -3.529831          -96.05159
    193       2.00000          -3.529811          -96.05104
    194       2.00000          -3.529768          -96.04986
    195       2.00000          -3.529765          -96.04980
    196       2.00000          -3.529763          -96.04975
    197       2.00000          -3.529761          -96.04969
    198       2.00000          -3.529743          -96.04919
    199       2.00000          -3.529737          -96.04903
    200       2.00000          -3.529737          -96.04902
    201       2.00000          -3.529733          -96.04892
    202       2.00000          -3.529729          -96.04883
    203       2.00000          -3.529729          -96.04881
    204       2.00000          -3.529711          -96.04832
    205       2.00000          -3.529709          -96.04827
    206       2.00000          -3.529708          -96.04824
    207       2.00000          -3.529707          -96.04820
    208       2.00000          -3.529702          -96.04808
    209       2.00000          -3.529702          -96.04808
    210       2.00000          -3.529699          -96.04801
    211       2.00000          -3.529699          -96.04801
    212       2.00000          -3.529691          -96.04777
    213       2.00000          -3.529690          -96.04774
    214       2.00000          -3.529687          -96.04766
    215       2.00000          -3.529686          -96.04765
    216       2.00000          -3.529516          -96.04303
    217       2.00000          -3.529506          -96.04273
    218       2.00000          -3.529504          -96.04268
    219       2.00000          -3.529499          -96.04256
    220       2.00000          -3.529498          -96.04254
    221       2.00000          -3.529498          -96.04253
    222       2.00000          -3.529498          -96.04253
    223       2.00000          -3.529498          -96.04253
    224       2.00000          -3.529498          -96.04253
    225       2.00000          -3.529498          -96.04253
    226       2.00000          -3.529498          -96.04253
    227       2.00000          -3.529498          -96.04253
    228       2.00000          -3.529498          -96.04253
    229       2.00000          -3.529498          -96.04253
    230       2.00000          -3.529495          -96.04246
    231       2.00000          -3.529493          -96.04238
    232       2.00000          -3.529491          -96.04233
    233       2.00000          -3.529480          -96.04203
    234       2.00000          -3.529306          -96.03731
    235       2.00000          -3.529306          -96.03731
    236       2.00000          -3.529306          -96.03730
    237       2.00000          -3.529304          -96.03725
    238       2.00000          -3.529296          -96.03704
    239       2.00000          -3.529296          -96.03704
    240       2.00000          -3.529293          -96.03696
    241       2.00000          -3.529293          -96.03696
    242       2.00000          -3.529290          -96.03687
    243       2.00000          -3.529288          -96.03682
    244       2.00000          -3.529287          -96.03677
    245       2.00000          -3.529285          -96.03673
    246       2.00000          -3.529267          -96.03624
    247       2.00000          -3.529264          -96.03617
    248       2.00000          -3.529262          -96.03611
    249       2.00000          -3.529259          -96.03603
    250       2.00000          -3.529259          -96.03602
    251       2.00000          -3.529253          -96.03586
    252       2.00000          -3.529235          -96.03537
    253       2.00000          -3.529233          -96.03532
    254       2.00000          -3.529231          -96.03525
    255       2.00000          -3.529229          -96.03521
    256       2.00000          -3.529178          -96.03381
    257       2.00000          -3.529164          -96.03345
    258       2.00000          -3.529163          -96.03341
    259       2.00000          -3.529151          -96.03307
    260       2.00000          -3.529138          -96.03272
    261       2.00000          -3.529134          -96.03262
    262       2.00000          -3.529129          -96.03248
    263       2.00000          -3.529127          -96.03243
    264       2.00000          -3.529113          -96.03205
    265       2.00000          -3.529113          -96.03204
    266       2.00000          -3.529113          -96.03204
    267       2.00000          -3.529113          -96.03204
    268       2.00000          -3.529113          -96.03204
    269       2.00000          -3.529113          -96.03204
    270       2.00000          -3.529113          -96.03204
    271       2.00000          -3.529113          -96.03204
    272       2.00000          -3.529113          -96.03204
    273       2.00000          -3.529113          -96.03204
    274       2.00000          -3.529113          -96.03204
    275       2.00000          -3.529113          -96.03204
    276       2.00000          -3.529111          -96.03199
    277       2.00000          -3.529111          -96.03199
    278       2.00000          -3.529111          -96.03199
    279       2.00000          -3.529110          -96.03198
    280       2.00000          -3.529110          -96.03198
    281       2.00000          -3.529110          -96.03198
    282       2.00000          -3.529110          -96.03196
    283       2.00000          -3.529109          -96.03196
    284       2.00000          -3.529109          -96.03195
    285       2.00000          -3.529105          -96.03182
    286       2.00000          -3.529102          -96.03175
    287       2.00000          -3.529102          -96.03175
    288       2.00000          -3.529098          -96.03165
    289       2.00000          -3.529097          -96.03161
    290       2.00000          -3.529090          -96.03143
    291       2.00000          -3.529083          -96.03124
    292       2.00000          -3.529082          -96.03122
    293       2.00000          -3.529080          -96.03116
    294       2.00000          -3.529080          -96.03114
    295       2.00000          -3.529078          -96.03110
    296       2.00000          -3.529077          -96.03107
    297       2.00000          -3.529076          -96.03104
    298       2.00000          -3.529075          -96.03102
    299       2.00000          -3.529074          -96.03099
    300       2.00000          -3.529073          -96.03096
    301       2.00000          -3.529072          -96.03093
    302       2.00000          -3.529070          -96.03089
    303       2.00000          -3.529070          -96.03088
    304       2.00000          -3.529068          -96.03084
    305       2.00000          -3.529064          -96.03071
    306       2.00000          -3.529064          -96.03071
    307       2.00000          -3.529064          -96.03071
    308       2.00000          -3.529064          -96.03071
    309       2.00000          -3.529064          -96.03071
    310       2.00000          -3.529064          -96.03071
    311       2.00000          -3.529064          -96.03071
    312       2.00000          -3.529064          -96.03071
    313       2.00000          -3.529064          -96.03071
    314       2.00000          -3.529064          -96.03071
    315       2.00000          -3.529058          -96.03056
    316       2.00000          -3.529039          -96.03003
    317       2.00000          -3.529036          -96.02996
    318       2.00000          -3.529033          -96.02988
    319       2.00000          -3.529032          -96.02984
    320       2.00000          -3.529003          -96.02906
    321       2.00000          -0.672155          -18.29027
    322       2.00000          -0.632635          -17.21488
    323       2.00000          -0.632566          -17.21299
    324       2.00000          -0.632554          -17.21266
    325       2.00000          -0.632554          -17.21266
    326       2.00000          -0.632542          -17.21233
    327       2.00000          -0.632474          -17.21050
    328       2.00000          -0.597742          -16.26539
    329       2.00000          -0.597622          -16.26211
    330       2.00000          -0.597573          -16.26080
    331       2.00000          -0.597569          -16.26067
    332       2.00000          -0.597568          -16.26067
    333       2.00000          -0.597568          -16.26066
    334       2.00000          -0.597567          -16.26064
    335       2.00000          -0.597567          -16.26063
    336       2.00000          -0.597567          -16.26063
    337       2.00000          -0.597562          -16.26050
    338       2.00000          -0.597515          -16.25921
    339       2.00000          -0.597397          -16.25601
    340       2.00000          -0.587590          -15.98914
    341       2.00000          -0.587563          -15.98840
    342       2.00000          -0.587521          -15.98725
    343       2.00000          -0.587492          -15.98647
    344       2.00000          -0.520780          -14.17116
    345       2.00000          -0.520737          -14.16998
    346       2.00000          -0.520692          -14.16874
    347       2.00000          -0.520692          -14.16874
    348       2.00000          -0.520648          -14.16756
    349       2.00000          -0.520608          -14.16647
    350       2.00000          -0.515295          -14.02188
    351       2.00000          -0.515233          -14.02019
    352       2.00000          -0.515136          -14.01758
    353       2.00000          -0.515132          -14.01745
    354       2.00000          -0.515131          -14.01744
    355       2.00000          -0.515131          -14.01743
    356       2.00000          -0.515131          -14.01743
    357       2.00000          -0.515131          -14.01742
    358       2.00000          -0.515130          -14.01741
    359       2.00000          -0.515126          -14.01728
    360       2.00000          -0.515029          -14.01466
    361       2.00000          -0.514963          -14.01285
    362       2.00000          -0.486868          -13.24836
    363       2.00000          -0.486831          -13.24734
    364       2.00000          -0.486808          -13.24671
    365       2.00000          -0.486769          -13.24567
    366       2.00000          -0.434805          -11.83164
    367       2.00000          -0.434803          -11.83159
    368       2.00000          -0.434692          -11.82857
    369       2.00000          -0.434683          -11.82833
    370       2.00000          -0.434682          -11.82829
    371       2.00000          -0.434680          -11.82823
    372       2.00000          -0.434679          -11.82822
    373       2.00000          -0.434677          -11.82816
    374       2.00000          -0.434675          -11.82812
    375       2.00000          -0.434667          -11.82789
    376       2.00000          -0.434555          -11.82485
    377       2.00000          -0.434555          -11.82483
    378       2.00000          -0.370569          -10.08369
    379       2.00000          -0.370517          -10.08228
    380       2.00000          -0.370496          -10.08172
    381       2.00000          -0.370492          -10.08160
    382       2.00000          -0.370482          -10.08134
    383       2.00000          -0.370479          -10.08124
    384       2.00000          -0.370479          -10.08124
    385       2.00000          -0.370476          -10.08115
    386       2.00000          -0.370466          -10.08089
    387       2.00000          -0.370463          -10.08080
    388       2.00000          -0.370445          -10.08031
    389       2.00000          -0.370394          -10.07893
    390       2.00000          -0.367256           -9.99353
    391       2.00000          -0.367251           -9.99342
    392       2.00000          -0.367230           -9.99285
    393       2.00000          -0.367194           -9.99187
    394       2.00000          -0.367189           -9.99173
    395       2.00000          -0.367184           -9.99159
    396       2.00000          -0.367184           -9.99158
    397       2.00000          -0.367179           -9.99145
    398       2.00000          -0.367174           -9.99131
    399       2.00000          -0.367138           -9.99032
    400       2.00000          -0.367115           -9.98971
    401       2.00000          -0.367115           -9.98971
    402       2.00000          -0.363804           -9.89962
    403       2.00000          -0.363764           -9.89853
    404       2.00000          -0.363726           -9.89748
    405       2.00000          -0.363726           -9.89747
    406       2.00000          -0.363682           -9.89630
    407       2.00000          -0.363642           -9.89521
    408       2.00000          -0.335850           -9.13893
    409       2.00000          -0.335810           -9.13785
    410       2.00000          -0.335807           -9.13776
    411       2.00000          -0.335806           -9.13775
    412       2.00000          -0.335804           -9.13768
    413       2.00000          -0.335764           -9.13659
    414       2.00000          -0.301129           -8.19415
    415       2.00000          -0.301022           -8.19122
    416       2.00000          -0.300993           -8.19042
    417       2.00000          -0.300985           -8.19021
    418       2.00000          -0.300985           -8.19021
    419       2.00000          -0.300985           -8.19021
    420       2.00000          -0.300985           -8.19021
    421       2.00000          -0.300985           -8.19021
    422       2.00000          -0.300984           -8.19019
    423       2.00000          -0.300977           -8.18999
    424       2.00000          -0.300948           -8.18921
    425       2.00000          -0.300842           -8.18633
    426       2.00000          -0.281600           -7.66273
    427       2.00000          -0.281503           -7.66008
    428       2.00000          -0.281466           -7.65909
    429       2.00000          -0.281446           -7.65854
    430       2.00000          -0.281442           -7.65843
    431       2.00000          -0.281442           -7.65843
    432       2.00000          -0.281442           -7.65842
    433       2.00000          -0.281442           -7.65842
    434       2.00000          -0.281438           -7.65831
    435       2.00000          -0.281418           -7.65777
    436       2.00000          -0.281381           -7.65676
    437       2.00000          -0.281289           -7.65427
    438       2.00000          -0.277307           -7.54592
    439       2.00000          -0.277226           -7.54369
    440       2.00000          -0.277212           -7.54333
    441       2.00000          -0.277202           -7.54305
    442       2.00000          -0.277197           -7.54291
    443       2.00000          -0.277186           -7.54262
    444       2.00000          -0.277171           -7.54221
    445       2.00000          -0.277081           -7.53976
    446       2.00000          -0.234721           -6.38708
    447       2.00000          -0.234660           -6.38543
    448       2.00000          -0.234599           -6.38378
    449       0.00000          -0.197664           -5.37872
    450       0.00000          -0.197648           -5.37828
    451       0.00000          -0.197612           -5.37729
    452       0.00000          -0.197612           -5.37729
    453       0.00000          -0.197577           -5.37634
    454       0.00000          -0.197560           -5.37589
    455       0.00000          -0.183493           -4.99310
    456       0.00000          -0.183486           -4.99291
    457       0.00000          -0.183439           -4.99162
    458       0.00000          -0.183439           -4.99162
    459       0.00000          -0.183392           -4.99036
    460       0.00000          -0.183385           -4.99016
    461       0.00000          -0.172926           -4.70555
    462       0.00000          -0.172921           -4.70543
    463       0.00000          -0.172912           -4.70518
    464       0.00000          -0.172907           -4.70504
    465       0.00000          -0.134913           -3.67118
    466       0.00000          -0.134912           -3.67113
    467       0.00000          -0.134830           -3.66891
    468       0.00000          -0.134826           -3.66879
    469       0.00000          -0.134822           -3.66869
    470       0.00000          -0.134817           -3.66857
    471       0.00000          -0.134816           -3.66852
    472       0.00000          -0.134811           -3.66840
    473       0.00000          -0.134808           -3.66830
    474       0.00000          -0.134803           -3.66818
    475       0.00000          -0.134725           -3.66604
    476       0.00000          -0.134723           -3.66599
    477       0.00000          -0.131513           -3.57865
    478       0.00000          -0.131480           -3.57775
    479       0.00000          -0.131447           -3.57686
    480       0.00000          -0.109927           -2.99127
    481       0.00000          -0.105457           -2.86962
    482       0.00000          -0.105433           -2.86898
    483       0.00000          -0.105412           -2.86842
    484       0.00000          -0.105412           -2.86840
    485       0.00000          -0.105390           -2.86782
    486       0.00000          -0.105368           -2.86720
    487       0.00000          -0.100727           -2.74093
    488       0.00000          -0.100716           -2.74063
    489       0.00000          -0.100652           -2.73889
    490       0.00000          -0.100649           -2.73881
    491       0.00000          -0.100648           -2.73877
    492       0.00000          -0.100645           -2.73868
    493       0.00000          -0.100580           -2.73692
    494       0.00000          -0.100568           -2.73660
    495       0.00000          -0.067486           -1.83640
    496       0.00000          -0.067469           -1.83591
    497       0.00000          -0.067421           -1.83461
    498       0.00000          -0.067412           -1.83438
    499       0.00000          -0.067396           -1.83395
    500       0.00000          -0.067392           -1.83382
    501       0.00000          -0.067391           -1.83381
    502       0.00000          -0.067386           -1.83368
    503       0.00000          -0.067371           -1.83325
    504       0.00000          -0.067364           -1.83306
    505       0.00000          -0.067316           -1.83176
    506       0.00000          -0.067298           -1.83126
    507       0.00000          -0.049168           -1.33794
    508       0.00000          -0.049127           -1.33682
    509       0.00000          -0.049070           -1.33527
    510       0.00000          -0.049069           -1.33524
    511       0.00000          -0.049037           -1.33437
    512       0.00000          -0.049036           -1.33435
    513       0.00000          -0.049036           -1.33435
    514       0.00000          -0.049036           -1.33433
    515       0.00000          -0.049004           -1.33347
    516       0.00000          -0.049004           -1.33346
    517       0.00000          -0.048948           -1.33193
    518       0.00000          -0.048908           -1.33086
    519       0.00000          -0.041986           -1.14251
    520       0.00000          -0.041982           -1.14239
    521       0.00000          -0.041938           -1.14118
    522       0.00000          -0.041919           -1.14068
    523       0.00000          -0.041896           -1.14005
    524       0.00000          -0.041895           -1.14002
    525       0.00000          -0.041894           -1.14000
    526       0.00000          -0.041894           -1.13999
    527       0.00000          -0.041873           -1.13941
    528       0.00000          -0.041851           -1.13882
    529       0.00000          -0.041808           -1.13765
    530       0.00000          -0.041807           -1.13761
    531       0.00000          -0.040547           -1.10334
    532       0.00000          -0.040460           -1.10096
    533       0.00000          -0.040444           -1.10054
    534       0.00000          -0.040416           -1.09976
    535       0.00000          -0.040413           -1.09971
    536       0.00000          -0.040413           -1.09970
    537       0.00000          -0.040413           -1.09969
    538       0.00000          -0.040411           -1.09963
    539       0.00000          -0.040411           -1.09963
    540       0.00000          -0.040377           -1.09872
    541       0.00000          -0.040362           -1.09830
    542       0.00000          -0.040275           -1.09594
    543       0.00000          -0.017341           -0.47186
    544       0.00000          -0.017340           -0.47184
    545       0.00000          -0.017255           -0.46953
    546       0.00000          -0.017249           -0.46936
    547       0.00000          -0.017248           -0.46935
    548       0.00000          -0.017248           -0.46935
    549       0.00000          -0.017248           -0.46935
    550       0.00000          -0.017248           -0.46935
    551       0.00000          -0.017247           -0.46932
    552       0.00000          -0.017242           -0.46917
    553       0.00000          -0.017155           -0.46682
    554       0.00000          -0.017155           -0.46681
    555       0.00000           0.001731            0.04711
    556       0.00000           0.001737            0.04727
    557       0.00000           0.001770            0.04817
    558       0.00000           0.001792            0.04875
    559       0.00000           0.001798            0.04892
    560       0.00000           0.001801            0.04901
    561       0.00000           0.001806            0.04915
    562       0.00000           0.001810            0.04925
    563       0.00000           0.001815            0.04940
    564       0.00000           0.001837            0.04998
    565       0.00000           0.001870            0.05088
    566       0.00000           0.001877            0.05109
    567       0.00000           0.018862            0.51325
    568       0.00000           0.018872            0.51354
    569       0.00000           0.018882            0.51380
    570       0.00000           0.018916            0.51473
    571       0.00000           0.018923            0.51492
    572       0.00000           0.018926            0.51502
    573       0.00000           0.018927            0.51502
    574       0.00000           0.018930            0.51511
    575       0.00000           0.018940            0.51537
    576       0.00000           0.018971            0.51624
    577       0.00000           0.018982            0.51652
    578       0.00000           0.018992            0.51679
    579       0.00000           0.064743            1.76174
    580       0.00000           0.064743            1.76174
    581       0.00000           0.068421            1.86184
    582       0.00000           0.068479            1.86340
    583       0.00000           0.068500            1.86397
    584       0.00000           0.068500            1.86398
    585       0.00000           0.068521            1.86456
    586       0.00000           0.068577            1.86608
    587       0.00000           0.084766            2.30659
    588       0.00000           0.090758            2.46965
    589       0.00000           0.090783            2.47032
    590       0.00000           0.090850            2.47215
    591       0.00000           0.090875            2.47283
    592       0.00000           0.109155            2.97025
    593       0.00000           0.109223            2.97210
    594       0.00000           0.109226            2.97218
    595       0.00000           0.109226            2.97218
    596       0.00000           0.109228            2.97225
    597       0.00000           0.109295            2.97408
    598       0.00000           0.131928            3.58994
    599       0.00000           0.131964            3.59092
    600       0.00000           0.131981            3.59138
    601       0.00000           0.131991            3.59165
    602       0.00000           0.131994            3.59174
    603       0.00000           0.132005            3.59204
    604       0.00000           0.132029            3.59270
    605       0.00000           0.132040            3.59300
    606       0.00000           0.132044            3.59309
    607       0.00000           0.132052            3.59332
    608       0.00000           0.132070            3.59380
    609       0.00000           0.132106            3.59478
[...]
  | Note that, for insulating systems, the printed 'chemical potential' value is not uniquely defined.
  | It can be anywhere in the energy gap, as long as it correctly separates occupied and unoccupied states.
  | In systems with a gap, the physically relevant chemical potential is the VBM or HOMO.

  Self-consistency cycle converged.

  Removing unitary transformations (pure translations, rotations) from forces on atoms.
  Atomic forces before filtering:
  | Net force on center of mass :   0.202020E-05  0.364717E-07  0.230634E-06 eV/A
  Atomic forces after filtering:
  | Net force on center of mass :  -0.380681E-16  0.958236E-17 -0.113682E-16 eV/A

  Energy and forces in a compact form:
  | Total energy uncorrected      :         -0.503945230085553E+06 eV
  | Total energy corrected        :         -0.503945230085553E+06 eV  <-- do not rely on this value for anything but (periodic) metals
  | Electronic free energy        :         -0.503945230085553E+06 eV
  Total atomic forces (unitary forces cleaned) [eV/Ang]:
  |    1         -0.134199019255873E+00         -0.748662915567123E-08         -0.132690649011100E-07
  |    2         -0.428369673841286E-02         -0.950158918413128E-03         -0.950162112665381E-03
  |    3         -0.399606870420014E-02         -0.316086547057827E-08          0.231733498739154E-07
  |    4         -0.428368567345424E-02          0.950158671670568E-03          0.950154113158408E-03
  |    5          0.185334227117561E-02          0.999040292776671E-03          0.181119098339219E-02
  |    6          0.341299779499004E-03         -0.617654491688345E-03          0.756211426206622E-04
  |    7          0.341503246560778E-03         -0.757962378023277E-04          0.617685889640754E-03
  |    8          0.185334148273109E-02         -0.181118670684719E-02         -0.999050618507261E-03
  |    9          0.461464403459542E-04          0.391484910483169E-08         -0.190271291742616E-07
  |   10         -0.369512678382055E-04          0.760121182591722E-04         -0.759910943642519E-04
  |   11          0.461160290145093E-04         -0.273276590186124E-07          0.978982923514411E-08
  |   12         -0.371768072585873E-04         -0.760110888661695E-04          0.759990433384269E-04
  |   13          0.182614902073073E-02         -0.996688843630189E-03          0.179415797821094E-02
  |   14          0.182616771781395E-02         -0.179418003184299E-02          0.996685939828079E-03
  |   15          0.341723444072185E-03          0.759555489760151E-04          0.619065043961089E-03
  |   16          0.341850100756576E-03         -0.619004234968284E-03         -0.760713755617599E-04
  |   17          0.185334627993660E-02          0.181118749743001E-02          0.999039907704834E-03
  |   18          0.341520046004221E-03          0.757825355627825E-04         -0.617671342644144E-03
  |   19          0.341658632008719E-03          0.617690816623581E-03         -0.756281196259713E-04
  |   20          0.185333985016689E-02         -0.999045406382019E-03         -0.181119942138269E-02
  |   21         -0.404409860138984E-04         -0.762617745188771E-04         -0.762135327149344E-04
  |   22          0.223584473238305E-03         -0.342220826805464E-08          0.348841878409113E-08
  |   23         -0.406517029606971E-04          0.762588647230684E-04          0.762246716405696E-04
  |   24          0.169733769750613E-03         -0.125940114426796E-07         -0.950836020200570E-08
  |   25          0.341503296499902E-03          0.619041286959288E-03          0.760322087471708E-04
  |   26          0.341709042039454E-03         -0.759871066207912E-04         -0.619031930093636E-03
  |   27          0.182616501610199E-02          0.179416929274258E-02         -0.996697622087491E-03
  |   28          0.182614794180508E-02          0.996697396529846E-03         -0.179415062236436E-02
  |   29         -0.427234460589464E-02          0.937711909334857E-03         -0.937748474620793E-03
  |   30          0.494018387089793E-03         -0.237770405648560E-07          0.174461070272335E-07
  |   31         -0.427233576842525E-02         -0.937718495737888E-03          0.937735882227530E-03
  |   32          0.494027918225730E-03          0.162622947583112E-07         -0.459258687872255E-08
  |   33          0.330722795729439E-01          0.235237197785864E-01          0.235237265993184E-01
  |   34          0.210831874361802E-02         -0.262072430813463E-03         -0.262070409193410E-03
  |   35          0.210828376851019E-02          0.262096613279187E-03          0.262089699018557E-03
  |   36          0.330722828317723E-01         -0.235237260942065E-01         -0.235237222172329E-01
  |   37          0.215734100674912E-03         -0.256217747886507E-03          0.209902645752069E-03
  |   38         -0.178775214377092E-03          0.273893794243359E-03         -0.273930659413776E-03
  |   39          0.215704871785385E-03         -0.209872967708508E-03          0.256240086561850E-03
  |   40         -0.628664615034389E-04          0.339569833251805E-03         -0.339560819994292E-03
  |   41          0.210250158590912E-03          0.249712390898580E-03          0.205996463936499E-03
  |   42          0.210215121740708E-03         -0.206007983893960E-03         -0.249750407487360E-03
  |   43          0.210212132009142E-03          0.206020065316234E-03          0.249743724238267E-03
  |   44          0.210247018923853E-03         -0.249717758507514E-03         -0.206001738585464E-03
  |   45          0.327557838964160E-01         -0.229036216156433E-01          0.229036119376094E-01
  |   46         -0.531497972857684E-03          0.332962735335341E-03         -0.408470546465648E-03
  |   47          0.209956918030308E-02         -0.261243545765328E-03          0.261267612064829E-03
  |   48         -0.531505184604224E-03          0.408483814487886E-03         -0.332973742556754E-03
  |   49          0.215686783992899E-03          0.209864104171245E-03         -0.256259129556546E-03
  |   50         -0.178770415756435E-03         -0.273907118421483E-03          0.273933346438572E-03
  |   51          0.215737615541422E-03          0.256225813255917E-03         -0.209897294051459E-03
  |   52         -0.628838248407951E-04         -0.339565355542674E-03          0.339555109302344E-03
  |   53         -0.178449179601573E-03         -0.275624182344965E-03         -0.275617363099064E-03
  |   54         -0.178448643812189E-03          0.275646961075676E-03          0.275649357219886E-03
  |   55         -0.616968198347563E-04         -0.340867628820290E-03         -0.340869522056219E-03
  |   56         -0.616928354232204E-04          0.340863174745923E-03          0.340862504710899E-03
  |   57          0.209958335108455E-02          0.261237974057762E-03         -0.261259877915308E-03
  |   58         -0.531505502438673E-03         -0.332959624683038E-03          0.408466561060362E-03
  |   59          0.327557796096105E-01          0.229036189598561E-01         -0.229036132939502E-01
  |   60         -0.531497871288675E-03         -0.408468791223855E-03          0.332974211717922E-03
  |   61         -0.537019807479223E-03         -0.340553433138053E-03         -0.404102515375333E-03
  |   62         -0.537031269003067E-03          0.340552102418239E-03          0.404104509957772E-03
  |   63         -0.537026445109335E-03         -0.404091157079978E-03         -0.340532693611310E-03
  |   64         -0.537023984823284E-03          0.404094017699545E-03          0.340523823235628E-03

  Removing unitary transformations (pure translations, rotations) from forces on atoms.
  Atomic forces before filtering:
  | Net force on center of mass :  -0.380681E-16  0.958236E-17 -0.113682E-16 eV/A
  Atomic forces after filtering:
  | Net force on center of mass :  -0.155931E-16  0.635920E-17 -0.535741E-17 eV/A
  @ DRIVER - WARNING: the stress tensor will not be computed
 ------------------------------------------------------------------------
 Atomic structure that was used in the preceding time step of the wrapper
                         x [A]             y [A]             z [A]
  lattice_vector        10.81766517        0.00000000        0.00000000
  lattice_vector         0.00000000       10.81766514        0.00000000
  lattice_vector         0.00000000        0.00000000       10.81766514

            atom         0.01000000        0.00000000        0.00000000  Si
            atom         0.00000000        2.70441628        2.70441628  Si
            atom         0.00000000        5.40883257        5.40883257  Si
            atom         0.00000000        8.11324885        8.11324885  Si
            atom         2.70441629        0.00000000        2.70441628  Si
            atom         2.70441629        2.70441628        5.40883257  Si
            atom         2.70441629        5.40883257        8.11324885  Si
            atom         2.70441629        8.11324885        0.00000000  Si
            atom         5.40883258        0.00000000        5.40883257  Si
            atom         5.40883258        2.70441628        8.11324885  Si
            atom         5.40883258        5.40883257        0.00000000  Si
            atom         5.40883258        8.11324885        2.70441628  Si
            atom         8.11324887        0.00000000        8.11324885  Si
            atom         8.11324887        2.70441628        0.00000000  Si
            atom         8.11324887        5.40883257        2.70441628  Si
            atom         8.11324887        8.11324885        5.40883257  Si
            atom         2.70441629        2.70441628        0.00000000  Si
            atom         2.70441629        5.40883257        2.70441628  Si
            atom         2.70441629        8.11324885        5.40883257  Si
            atom         2.70441629        0.00000000        8.11324885  Si
            atom         5.40883258        2.70441628        2.70441628  Si
            atom         5.40883258        5.40883257        5.40883257  Si
            atom         5.40883258        8.11324885        8.11324885  Si
            atom         5.40883258        0.00000000        0.00000000  Si
            atom         8.11324887        2.70441628        5.40883257  Si
            atom         8.11324887        5.40883257        8.11324885  Si
            atom         8.11324887        8.11324885        0.00000000  Si
            atom         8.11324887        0.00000000        2.70441628  Si
            atom         0.00000000        2.70441628        8.11324885  Si
            atom         0.00000000        5.40883257        0.00000000  Si
            atom         0.00000000        8.11324885        2.70441628  Si
            atom         0.00000000        0.00000000        5.40883257  Si
            atom         1.35220815        1.35220814        1.35220814  Si
            atom         1.35220815        4.05662443        4.05662443  Si
            atom         1.35220815        6.76104071        6.76104071  Si
            atom         1.35220815        9.46545700        9.46545699  Si
            atom         4.05662444        1.35220814        4.05662443  Si
            atom         4.05662444        4.05662443        6.76104071  Si
            atom         4.05662444        6.76104071        9.46545700  Si
            atom         4.05662444        9.46545699        1.35220814  Si
            atom         6.76104073        1.35220814        6.76104071  Si
            atom         6.76104073        4.05662443        9.46545700  Si
            atom         6.76104073        6.76104071        1.35220814  Si
            atom         6.76104073        9.46545700        4.05662443  Si
            atom         9.46545702        1.35220814        9.46545700  Si
            atom         9.46545702        4.05662443        1.35220814  Si
            atom         9.46545702        6.76104071        4.05662443  Si
            atom         9.46545702        9.46545700        6.76104071  Si
            atom         4.05662444        4.05662443        1.35220814  Si
            atom         4.05662444        6.76104071        4.05662443  Si
            atom         4.05662444        9.46545700        6.76104071  Si
            atom         4.05662444        1.35220814        9.46545699  Si
            atom         6.76104073        4.05662443        4.05662443  Si
            atom         6.76104073        6.76104071        6.76104071  Si
            atom         6.76104073        9.46545700        9.46545700  Si
            atom         6.76104073        1.35220814        1.35220814  Si
            atom         9.46545702        4.05662443        6.76104071  Si
            atom         9.46545702        6.76104071        9.46545700  Si
            atom         9.46545702        9.46545699        1.35220814  Si
            atom         9.46545702        1.35220814        4.05662443  Si
            atom         1.35220815        4.05662443        9.46545699  Si
            atom         1.35220815        6.76104071        1.35220814  Si
            atom         1.35220815        9.46545699        4.05662443  Si
            atom         1.35220815        1.35220814        6.76104071  Si
 ------------------------------------------------------------------------
  @ DRIVER MODE: Message from server: STATUS      
  @ DRIVER MODE: Message from server: GETFORCE    
  @ DRIVER MODE: Returning v,forces,stress 

------------------------------------------------------------------------------
  Final output of selected total energy values:

  The following output summarizes some interesting total energy values
  at the end of a run (AFTER all relaxation, molecular dynamics, etc.).

  | Total energy of the DFT / Hartree-Fock s.c.f. calculation      :        -503945.230085553 eV
  | Final zero-broadening corrected energy (caution - metals only) :        -503945.230085553 eV
  | For reference only, the value of 1 Hartree used in FHI-aims is :             27.211384500 eV
  | For reference only, the overall average (free atom contribution
  | + realspace contribution) of the electrostatic potential after
  | s.c.f. convergence is                                          :            -12.991260976 eV

  Before relying on these values, please be sure to understand exactly which
  total energy value is referred to by a given number. Different objects may
  all carry the same name 'total energy'. Definitions:

  Total energy of the DFT / Hartree-Fock s.c.f. calculation:
  | Note that this energy does not include ANY quantities calculated after the
  | s.c.f. cycle, in particular not ANY RPA, MP2, etc. many-body perturbation terms.

  Final zero-broadening corrected energy:
  | For metallic systems only, a broadening of the occupation numbers at the Fermi
  | level can be extrapolated back to zero broadening by an electron-gas inspired
  | formula. For all systems that are not real metals, this value can be
  | meaningless and should be avoided.

------------------------------------------------------------------------------
  Methods described in the following list of references were used in this FHI-aims run.
  If you publish the results, please make sure to cite these reference if they apply.
  FHI-aims is an academic code, and for our developers (often, Ph.D. students
  and postdocs), scientific credit in the community is essential.
  Thank you for helping us!

  For any use of FHI-aims, please cite:

    Volker Blum, Ralf Gehrke, Felix Hanke, Paula Havu, Ville Havu,
    Xinguo Ren, Karsten Reuter, and Matthias Scheffler
    'Ab initio molecular simulations with numeric atom-centered orbitals'
    Computer Physics Communications 180, 2175-2196 (2009)
    http://doi.org/10.1016/j.cpc.2009.06.022


  The provided symmetry information was generated with SPGlib:

    Atsushi Togo, Yusuke Seto, Dimitar Pashov
    SPGlib 1.7.3 obtained from http://spglib.sourceforge.net
    Licence: New BSD license
    Copyright (C) 2008 Atsushi Togo


  The ELSI infrastructure was used in your run to solve the Kohn-Sham electronic structure.
  Please check out http://elsi-interchange.org to learn more.
  If scalability is important for your project, please acknowledge ELSI by citing:

    V. W-z. Yu, F. Corsetti, A. Garcia, W. P. Huhn, M. Jacquelin, W. Jia,
    B. Lange, L. Lin, J. Lu, W. Mi, A. Seifitokaldani, A. Vazquez-Mayagoitia,
    C. Yang, H. Yang, and V. Blum
    'ELSI: A unified software interface for Kohn-Sham electronic structure solvers'
    Computer Physics Communications 222, 267-285 (2018).
    http://doi.org/10.1016/j.cpc.2017.09.007


  For the real-space grid partitioning and parallelization used in this calculation, please cite:

    Ville Havu, Volker Blum, Paula Havu, and Matthias Scheffler,
    'Efficient O(N) integration for all-electron electronic structure calculation'
    'using numerically tabulated basis functions'
    Journal of Computational Physics 228, 8367-8379 (2009).
    http://doi.org/10.1016/j.jcp.2009.08.008

  Of course, there are many other important community references, e.g., those cited in the
  above references. Our list is limited to references that describe implementations in the
  FHI-aims code. The reason is purely practical (length of this list) - please credit others as well.

------------------------------------------------------------
          Leaving FHI-aims.
          Date     :  20250609, Time     :  184920.297

          Computational steps:
          | Number of self-consistency cycles          :           14
          | Number of SCF (re)initializations          :            1

          Detailed time accounting                     :  max(cpu_time)    wall_clock(cpu1)
          | Total time                                  :       89.884 s          93.475 s
          | Preparation time                            :        0.087 s           0.087 s
          | Boundary condition initalization            :        0.065 s           0.074 s
          | Grid partitioning                           :        0.427 s           0.429 s
          | Preloading free-atom quantities on grid     :        0.858 s           0.861 s
          | Free-atom superposition energy              :        0.194 s           0.194 s
          | Total time for integrations                 :       22.712 s          24.418 s
          | Total time for solution of K.-S. equations  :       15.760 s          15.074 s
          | Total time for density & force components   :       35.361 s          35.689 s
          | Total time for mixing                       :        0.033 s           0.035 s
          | Total time for Hartree multipole update     :        0.106 s           0.109 s
          | Total time for Hartree multipole sum        :       11.045 s          11.533 s
          | Total time for total energy evaluation      :        0.001 s           0.019 s
          | Total time NSC force correction             :        4.635 s           4.715 s
          | Total time for scaled ZORA corrections      :        0.000 s           0.000 s

          Partial memory accounting:
          | Residual value for overall tracked memory usage across tasks:     0.000000 MB (should be 0.000000 MB)
          | Peak values for overall tracked memory usage:
          |   Minimum:      140.957 MB (on task 3 after allocating eval_tmp)
          |   Maximum:      140.970 MB (on task 7 after allocating eval_tmp)
          |   Average:      140.964 MB
          | Largest tracked array allocation:
          |   Minimum:       21.391 MB (overlap_matrix on task 0)
          |   Maximum:       21.391 MB (overlap_matrix on task 0)
          |   Average:       21.391 MB
          Note:  These values currently only include a subset of arrays which are explicitly tracked.
          The "true" memory usage will be greater.

          Have a nice day.
------------------------------------------------------------
