------------------------------------------------------------
          Invoking FHI-aims ...

          When using FHI-aims, please cite the following reference:

            Volker Blum, Ralf Gehrke, Felix Hanke, Paula Havu,
            Ville Havu, Xinguo Ren, Karsten Reuter, and Matthias Scheffler,
            'Ab Initio Molecular Simulations with Numeric Atom-Centered Orbitals',
            Computer Physics Communications 180, 2175-2196 (2009)

          In addition, many other developments in FHI-aims are likely important for
          your particular application. If so, please cite them. A partial list of references
          is written at the end of this file. Thank you for giving credit to the authors
          of these developments.

          For general information about FHI-aims please find us at

            https://fhi-aims.org

          Online tutorials can be found at

            https://fhi-aims-club.gitlab.io/tutorials/tutorials-overview/

          For any questions about FHI-aims, please visit our slack channel at

            https://fhi-aims.slack.com

          and our main development and support site at

            https://aims-git.rz-berlin.mpg.de .

          The latter site, in particular, has a wiki to collect information, as well
          as an issue tracker to log discussions, suggest improvements, and report issues
          or bugs. https://aims-git.rz-berlin.mpg.de is also the main development site
          of the project and all new and updated code versions can be obtained there.
          Please send an email to aims-coordinators@fhi-berlin.mpg.de and we will add
          you to these sites. They are for you and everyone is welcome there.

------------------------------------------------------------



  Date     :  20250610, Time     :  175300.196
  Time zero on CPU 1             :   0.259620000000000E-01  s.
  Internal wall clock time zero  :           518809980.196  s.

  FHI-aims created a unique identifier for this run for later identification
  aims_uuid : EB43F6CF-366C-4607-AA27-8C32E1AD10E4

  Build configuration of the current instance of FHI-aims
  -------------------------------------------------------
  FHI-aims version      : 250320.1
  Commit number         : GITDIR-NOTFOUND
  CMake host system     : Linux-6.11.0-26-generic
  CMake version         : 3.28.3
  Fortran compiler      : /usr/bin/mpif90 (GNU) version 13.3.0
  Fortran compiler flags: -O3 -ffree-line-length-none -fallow-argument-mismatch
  C compiler            : /usr/bin/mpicc (GNU) version 13.3.0
  C compiler flags      : -O2
  C++ compiler          : /usr/bin/mpic++ (GNU) version 13.3.0
  C++ compiler flags    : -O2 -fPIE
  HIP compiler          :
  HIP compiler flags    :
  HIP GPU arch          :
  Using MPI
  Using ScaLAPACK
  Using LibXC
  Using i-PI
  Using RLSY
  Linking against: /usr/lib/x86_64-linux-gnu/liblapack.so
                   /usr/lib/x86_64-linux-gnu/libblas.so
                   /usr/lib/x86_64-linux-gnu/libscalapack-openmpi.so

  Using        6 parallel tasks.
  Task        0 on host 2f95f663cbc8 reporting.
  Task        1 on host 2f95f663cbc8 reporting.
  Task        2 on host 2f95f663cbc8 reporting.
  Task        3 on host 2f95f663cbc8 reporting.
  Task        4 on host 2f95f663cbc8 reporting.
  Task        5 on host 2f95f663cbc8 reporting.

  Obtaining array dimensions for all initial allocations:
  
  -----------------------------------------------------------------------
  Parsing control.in (first pass over file, find array dimensions only).
  The contents of control.in will be repeated verbatim below
  unless switched off by setting 'verbatim_writeout .false.' .
  in the first line of control.in .
  -----------------------------------------------------------------------
  
  #===============================================================================
  # FHI-aims file: ./control.in
  # Created using the Atomic Simulation Environment (ASE)
  # Tue Jun 10 17:52:59 2025
  #===============================================================================
  xc                                 pw-lda
  compute_forces                     .true.
  k_grid                             4 4 4
  sc_accuracy_rho                    1e-06
  relativistic                       atomic_zora scalar
  output_level                       MD_light
  use_pimd_wrapper                   localhost 10001
  #===============================================================================
  
  ################################################################################
  #
  #  FHI-aims code project
  #  VB, Fritz-Haber Institut, 2009
  #
  #  Suggested "light" defaults for Si atom (to be pasted into control.in file)
  #  Be sure to double-check any results obtained with these settings for post-processing,
  #  e.g., with the "tight" defaults and larger basis sets.
  #
  #  2020/09/08 Added f function to "light" after reinspection of Delta test outcomes.
  #             This was done for all of Al-Cl and is a tricky decision since it makes
  #             "light" calculations measurably more expensive for these elements.
  #             Nevertheless, outcomes for P, S, Cl (and to some extent, Si) appear
  #             to justify this choice.
  #
  ################################################################################
    species        Si
  #     global species definitions
      nucleus             14
      mass                28.0855
  #
      l_hartree           4
  #
      cut_pot             3.5          1.5  1.0
      basis_dep_cutoff    1e-4
  #
      radial_base         42 5.0
      radial_multiplier   1
      angular_grids       specified
        division   0.5866   50
        division   0.9616  110
        division   1.2249  194
        division   1.3795  302
  #      division   1.4810  434
  #      division   1.5529  590
  #      division   1.6284  770
  #      division   1.7077  974
  #      division   2.4068 1202
  #      outer_grid   974
        outer_grid 302
  ################################################################################
  #
  #  Definition of "minimal" basis
  #
  ################################################################################
  #     valence basis states
      valence      3  s   2.
      valence      3  p   2.
  #     ion occupancy
      ion_occ      3  s   1.
      ion_occ      3  p   1.
  ################################################################################
  #
  #  Suggested additional basis functions. For production calculations,
  #  uncomment them one after another (the most important basis functions are
  #  listed first).
  #
  #  Constructed for dimers: 1.75 A, 2.0 A, 2.25 A, 2.75 A, 3.75 A
  #
  ################################################################################
  #  "First tier" - improvements: -571.96 meV to -37.03 meV
       hydro 3 d 4.2
       hydro 2 p 1.4
       hydro 4 f 6.2
       ionic 3 s auto
  #  "Second tier" - improvements: -16.76 meV to -3.03 meV
  #     hydro 3 d 9
  #     hydro 5 g 9.4
  #     hydro 4 p 4
  #     hydro 1 s 0.65
  #  "Third tier" - improvements: -3.89 meV to -0.60 meV
  #     ionic 3 d auto
  #     hydro 3 s 2.6
  #     hydro 4 f 8.4
  #     hydro 3 d 3.4
  #     hydro 3 p 7.8
  #  "Fourth tier" - improvements: -0.33 meV to -0.11 meV
  #     hydro 2 p 1.6
  #     hydro 5 g 10.8
  #     hydro 5 f 11.2
  #     hydro 3 d 1
  #     hydro 4 s 4.5
  #  Further basis functions that fell out of the optimization - noise
  #  level... < -0.08 meV
  #     hydro 4 d 6.6
  #     hydro 5 g 16.4
  #     hydro 4 d 9
  
  -----------------------------------------------------------------------
  Completed first pass over input file control.in .
  -----------------------------------------------------------------------
  
  
  -----------------------------------------------------------------------
  Parsing geometry.in (first pass over file, find array dimensions only).
  The contents of geometry.in will be repeated verbatim below
  unless switched off by setting 'verbatim_writeout .false.' .
  in the first line of geometry.in .
  -----------------------------------------------------------------------
  
  #=======================================================
  # FHI-aims file: ./geometry.in
  # Created using the Atomic Simulation Environment (ASE)
  # Tue Jun 10 17:52:59 2025
  #=======================================================
  lattice_vector 5.3175461753035993 -0.0000000000000001 -0.0000000000000001
  lattice_vector -0.0000000000000001 5.3175461753035993 0.0000000000000001
  lattice_vector 0.0000000000000001 0.0000000000000001 5.3175461753035993
  atom_frac 0.0018805666505433 0.0000000000000000 0.0000000000000000 Si
  atom_frac 0.0000000000000000 0.5000000000000000 0.5000000000000000 Si
  atom_frac 0.5000000000000000 0.0000000000000000 0.5000000000000000 Si
  atom_frac 0.5000000000000000 0.5000000000000000 -0.0000000000000000 Si
  atom_frac 0.2500000000000000 0.2500000000000000 0.2500000000000000 Si
  atom_frac 0.2500000000000000 0.7500000000000000 0.7500000000000000 Si
  atom_frac 0.7500000000000000 0.2500000000000000 0.7500000000000000 Si
  atom_frac 0.7500000000000000 0.7500000000000000 0.2500000000000000 Si
  
  -----------------------------------------------------------------------
  Completed first pass over input file geometry.in .
  -----------------------------------------------------------------------
  

  Basic array size parameters:
  | Number of species                 :        1
  | Number of atoms                   :        8
  | Number of lattice vectors         :        3
  | Max. basis fn. angular momentum   :        3
  | Max. atomic/ionic basis occupied n:        3
  | Max. number of basis fn. types    :        3
  | Max. radial fns per species/type  :        5
  | Max. logarithmic grid size        :     1346
  | Max. radial integration grid size :       42
  | Max. angular integration grid size:      302
  | Max. angular grid division number :        8
  | Radial grid for Hartree potential :     1346
  | Number of spin channels           :        1

  Definition of standardized fundamental physical constants in this FHI-aims run:
  | Using the set of values used in FHI-aims up to 2024, which combines values from
  | different CODATA sets - see constants.f90.
  | Use the 'codata' keyword in control.in to change this selection.

  Memory overcommitment is allowed on your operating system.

------------------------------------------------------------
          Reading file control.in.
------------------------------------------------------------
  XC: Using Perdew-Wang parametrisation of Ceperley-Alder LDA.
  Forces will be computed.
  Found k-point grid:         4         4         4
  Convergence accuracy of self-consistent charge density:  0.1000E-05
  Scalar relativistic treatment of kinetic energy: on-site free-atom approximation to ZORA.
  Requested output level: MD_light
  Using external wrapper (i-PI) for performing (path integral) molecular dynamics
  **Attention: initial geometry.in file will be ignored!

  Reading configuration options for species Si                  .
  | Found nuclear charge :  14.0000
  | Found atomic mass :    28.085500000000000      amu
  | Found l_max for Hartree potential  :   4
  | Found cutoff potl. onset [A], width [A], scale factor :    3.50000    1.50000    1.00000
  | Threshold for basis-dependent cutoff potential is   0.100000E-03
  | Found data for basic radial integration grid :    42 points, outermost radius =    5.000 A
  | Found multiplier for basic radial grid :   1
  | Found angular grid specification: user-specified.
  | Specified grid contains     5 separate shells.
  | Check grid settings after all constraints further below.
  | Found free-atom valence shell :  3 s   2.000
  | Found free-atom valence shell :  3 p   2.000
  | Found free-ion valence shell :  3 s   1.000
  | Found free-ion valence shell :  3 p   1.000
  | Found hydrogenic basis function :  3 d   4.200
  | Found hydrogenic basis function :  2 p   1.400
  | Found hydrogenic basis function :  4 f   6.200
  | Found ionic basis function :  3 s , default cutoff radius.
  Species Si                  : Missing cutoff potential type.
  Defaulting to exp(1/x)/(1-x)^2 type cutoff potential.
  Species Si: No 'logarithmic' tag. Using default grid for free atom:
  | Default logarithmic grid data [bohr] : 0.1000E-03 0.1000E+03 0.1012E+01
  | Will include ionic basis functions of  2.0-fold positive Si                   ion.
  Species Si: On-site basis accuracy parameter (for Gram-Schmidt orthonormalisation) not specified.
  Using default value basis_acc =  0.1000000E-03.
  Species Si                  : Using default innermost maximum threshold i_radial=  2 for radial functions.
  Species Si                  : Default cutoff onset for free atom density etc. : 0.35000000E+01 AA.
  Species Si                  : Basic radial grid will be enhanced according to radial_multiplier =   1, to contain    42 grid points.

  Finished reading input file 'control.in'.

------------------------------------------------------------


------------------------------------------------------------
          Reading geometry description geometry.in.
------------------------------------------------------------
  | The smallest distance between any two atoms is         2.29680605 AA.
  | The first atom of this pair is atom number                      1 .
  | The second atom of this pair is atom number                     5 .
  | Wigner-Seitz cell of the first atom image           0     0     0 .
  | (The Wigner-Seitz cell of the second atom is 0 0 0  by definition.)

  Symmetry information by spglib:
  | Precision set to  0.1E-04
  | Number of Operations  : 4
  | Space group           : 35
  | International         : Cmm2
  | Schoenflies           : C2v^11
  Input structure read successfully.
  The structure contains        8 atoms,  and a total of        112.000 electrons.

  Input geometry:
  | Unit cell:
  |        5.31754618       -0.00000000       -0.00000000
  |       -0.00000000        5.31754618        0.00000000
  |        0.00000000        0.00000000        5.31754618
  | Atomic structure:
  |       Atom                x [A]            y [A]            z [A]
  |    1: Species Si            0.01000000       -0.00000000       -0.00000000
  |    2: Species Si            0.00000000        2.65877309        2.65877309
  |    3: Species Si            2.65877309        0.00000000        2.65877309
  |    4: Species Si            2.65877309        2.65877309        0.00000000
  |    5: Species Si            1.32938654        1.32938654        1.32938654
  |    6: Species Si            1.32938654        3.98815963        3.98815963
  |    7: Species Si            3.98815963        1.32938654        3.98815963
  |    8: Species Si            3.98815963        3.98815963        1.32938654

  Lattice parameters for 3D lattice (in Angstroms) :     5.317546    5.317546    5.317546
  Angle(s) between unit vectors (in degrees)       :    90.000000   90.000000   90.000000


  Quantities derived from the lattice vectors (in Angstrom^-1):
  | Reciprocal lattice vector 1:  1.181595 -0.000000 -0.000000
  | Reciprocal lattice vector 2:  0.000000  1.181595  0.000000
  | Reciprocal lattice vector 3:  0.000000 -0.000000  1.181595
  | Unit cell volume                               :   0.150361E+03  Angstrom^3

  Slab Identifier: This seems to be a bulk system.

  Finished reading input file 'geometry.in'.



  Consistency checks for stacksize environment parameter are next.

  | Maximum stacksize for task 0: unlimited
  | Maximum stacksize for task 1: unlimited
  | Maximum stacksize for task 2: unlimited
  | Maximum stacksize for task 3: unlimited
  | Maximum stacksize for task 4: unlimited
  | Maximum stacksize for task 5: unlimited
  | Current stacksize for task 0: unlimited
  | Current stacksize for task 1: unlimited
  | Current stacksize for task 2: unlimited
  | Current stacksize for task 3: unlimited
  | Current stacksize for task 4: unlimited
  | Current stacksize for task 5: unlimited

  Consistency checks for the contents of control.in are next.

  MPI_IN_PLACE appears to work with this MPI implementation.
  | Keeping use_mpi_in_place .true. (see manual).
  Target number of points in a grid batch is not set. Defaulting to  100
  Method for grid partitioning is not set. Defaulting to parallel hash+maxmin partitioning.
  Batch size limit is not set. Defaulting to    200
  By default, will store active basis functions for each batch.
  If in need of memory, prune_basis_once .false. can be used to disable this option.
  communication_type for Hartree potential was not specified.
  Defaulting to calc_hartree .
  Defaulting to Pulay charge density mixer.
  Pulay mixer: Number of relevant iterations not set.
  Defaulting to    8 iterations.
  Pulay mixer: Number of initial linear mixing iterations not set.
  Defaulting to    0 iterations.
  Work space size for distributed Hartree potential not set.
  Defaulting to   0.200000E+03 MB.
  Mixing parameter for charge density mixing has not been set.
  Using default: charge_mix_param =     0.0500.
  The mixing parameter will be adjusted in iteration number     2 of each s.c.f. cycle (i.e., each geometry step).
  Algorithm-dependent basis array size parameters:
  | n_max_pulay                         :        8
  Maximum number of self-consistency iterations not provided.
  Presetting  1000 iterations.
  Presetting      1001 iterations before the initial mixing cycle
  is restarted anyway using the sc_init_iter criterion / keyword.
  Presetting a factor      1.000 between actual scf density residual
  and density convergence criterion sc_accuracy_rho below which sc_init_iter
  takes no effect.
  Geometry relaxation not requested: no relaxation will be performed.
  Forces evaluation will include force correction term due to incomplete self-consistency (default).
  Force calculation: scf convergence accuracy of forces not set.
  Defaulting to 'sc_accuracy_forces not_checked'.
  Handling of forces: Unphysical translation and rotation will be removed from forces.
  No accuracy limit for integral partition fn. given. Defaulting to  0.1000E-14.
  No threshold value for u(r) in integrations given. Defaulting to  0.1000E-05.
  No occupation type (smearing scheme) given. Defaulting to Gaussian broadening, width =  0.1000E-01 eV.
  The width will be adjusted in iteration number     2 of each s.c.f. cycle (i.e., each geometry step).
  No accuracy for occupation numbers given. Defaulting to  0.1000E-12.
  No threshold value for occupation numbers given. Defaulting to  0.0000E+00.
  No accuracy for fermi level given. Defaulting to  0.1000E-19.
  Maximum # of iterations to find E_F not set. Defaulting to  200.
  Preferred method for the eigenvalue solver ('KS_method') not specified in 'control.in'.
  Defaulting to serial version, LAPACK (via ELSI), since more k-points than CPUs available.
  Will not use alltoall communication since running on < 1024 CPUs.
  Threshold for basis singularities not set.
  Default threshold for basis singularities:  0.1000E-04
  partition_type (choice of integration weights) for integrals was not specified.
  | Using a version of the partition function of Stratmann and coworkers ('stratmann_sparse').
  | At each grid point, the set of atoms used to build the partition table is smoothly restricted to
  | only those atoms whose free-atom density would be non-zero at that grid point.
  Partitioning for Hartree potential was not defined. Using partition_type for integrals.
  | Adjusted default value of keyword multip_moments_threshold to:       0.10000000E-11
  | This value may affect high angular momentum components of the Hartree potential in periodic systems.
  Spin handling was not defined in control.in. Defaulting to unpolarized case.
  No q(lm)/r^(l+1) cutoff set for long-range Hartree potential.
  | Using default value of  0.100000E-09 .
  | Verify using the multipole_threshold keyword.
  Defaulting to new monopole extrapolation.
  Density update method: automatic selection selected.
  Using density matrix based charge density update.
  Using density matrix based charge density update.
  Using packed matrix style: index .
  Threshold of packed matrixes:  0.000000E+00
  Defaulting to use time-reversal symmetry for k-point grid.
  Charge integration errors on the 3D integration grid will be compensated
  by explicit normalization and distribution of residual charges.
  Use the "compensate_multipole_errors" flag to change this behaviour.
  Set 'collect_eigenvectors' to be '.true.' for all serial calculations. This is mandatory.
  Set 'collect_eigenvectors' to be '.true.' for KS_method lapack_fast and serial.
  Found potential conflicts with setting 'use_local_index' for this calculation. Will not set it.

  Consistency checks for the contents of geometry.in are next.


  Range separation radius for Ewald summation (hartree_convergence_parameter):      3.79922523 bohr.
  Number of empty states per atom not set in control.in - providing a guess from actual geometry.
  | Total number of empty states used during s.c.f. cycle:       24
  If you use a very high smearing, use empty_states (per atom!) in control.in to increase this value.

  Structure-dependent array size parameters: 
  | Maximum number of distinct radial functions  :        9
  | Maximum number of basis functions            :      200
  | Number of Kohn-Sham states (occupied + empty):       80
------------------------------------------------------------

************************** W A R N I N G *******************************
* You are using the PIMD wrapper. Specifications and positions         *
* in geometry.in will be IGNORED - all is received from the wrapper.   *
* Please make sure species are declared in the same order in           *
* geometry.in and wrapper input.                                       *
************************************************************************


  Checking k-grid inconsistencies now:
  | k-point density for reciprocal lattice vector 1 is    3.39 nkpts / Angstrom^-1
  | k-point density for reciprocal lattice vector 2 is    3.39 nkpts / Angstrom^-1
  | k-point density for reciprocal lattice vector 3 is    3.39 nkpts / Angstrom^-1

  | Ratio of k-point densities for reciprocal lattice vectors 1 vs 2 is    1.00
  | Ratio of k-point densities for reciprocal lattice vectors 1 vs 3 is    1.00
  | Ratio of k-point densities for reciprocal lattice vectors 2 vs 3 is    1.00

  * The specified k_grid leads to a nearly homogenous k-grid density in non-vacuum directions,
  * and seems sensible.

  | Checks passed.
  After read_input_data [GB]:      5.08

  Performing system and environment tests:
  *** Environment variable OMP_NUM_THREADS is not set
  *** For performance reasons you might want to set it to 1
  | Checking for ScaLAPACK...
  | Testing pdtran()...
  | All pdtran() tests passed.
  After prepare_system [GB]:      5.04

------------------------------------------------------------
          Preparing all fixed parts of the calculation.
------------------------------------------------------------
  Determining machine precision:
     2.2250738585072014E-308
  Setting up grids for atomic and cluster calculations.

  Creating wave function, potential, and density for free atoms.
  Runtime choices for atomic solver:
  | atomic solver xc        : PW-LDA
  | compute density gradient: 0
  | compute kinetic density : F

  Species: Si

  List of occupied orbitals and eigenvalues:
    n    l              occ      energy [Ha]    energy [eV]
    1    0           2.0000       -65.491668     -1782.1190
    2    0           2.0000        -5.087967      -138.4506
    3    0           2.0000        -0.391471       -10.6525
    2    1           6.0000        -3.502246       -95.3010
    3    1           2.0000        -0.143943        -3.9169


  Adding cutoff potential to free-atom effective potential.
  Creating fixed part of basis set: Ionic, confined, hydrogenic.

  Si                   ion:

  List of free ionic orbitals and eigenvalues:
    n    l      energy [Ha]    energy [eV]
    1    0       -66.364436     -1805.8682
    2    0        -5.935799      -161.5213
    3    0        -1.078166       -29.3384
    2    1        -4.351123      -118.4001
    3    1        -0.781733       -21.2720


  List of ionic basis orbitals and eigenvalues:
    n    l      energy [Ha]    energy [eV]    outer radius [A]
    3    0        -1.078146       -29.3378       4.214062


  Si                   hydrogenic:

  List of hydrogenic basis orbitals: 
    n    l      effective z      eigenvalue [eV]  inner max. [A]     outer max. [A]     outer radius [A]   
    3    2         4.200000       -26.6624           1.139231           1.139231           4.534782
    2    1         1.400000        -6.4613           1.472672           1.472672           4.590560
    4    3         6.200000       -32.6778           1.368518           1.368518           4.534782

  Creating atomic-like basis functions for current effective potential.

  Species Si                  :

  List of atomic basis orbitals and eigenvalues:
    n    l      energy [Ha]    energy [eV]    outer radius [A]
    1    0       -65.491668     -1782.1190       0.789468
    2    0        -5.087967      -138.4506       2.815114
    3    0        -0.391471       -10.6525       4.534782
    2    1        -3.502246       -95.3010       3.259919
    3    1        -0.143943        -3.9169       4.590560

  Assembling full basis from fixed parts.
  | Species Si :   atomic orbital   1 s accepted.
  | Species Si :   atomic orbital   2 s accepted.
  | Species Si :    ionic orbital   3 s accepted.
  | Species Si :   atomic orbital   3 s accepted.
  | Species Si :   atomic orbital   2 p accepted.
  | Species Si :   atomic orbital   3 p accepted.
  | Species Si :    hydro orbital   2 p accepted.
  | Species Si :    hydro orbital   3 d accepted.
  | Species Si :    hydro orbital   4 f accepted.

  Basis size parameters after reduction:
  | Total number of radial functions:        9
  | Total number of basis functions :      200

  Per-task memory consumption for arrays in subroutine allocate_ext:
  |           3.106072MB.
  Testing on-site integration grid accuracy.
  |  Species  Function  <phi|h_atom|phi> (log., in eV)  <phi|h_atom|phi> (rad., in eV)
           1        1              -1782.1189727076              -1782.1182429251
           1        2               -138.4506350693               -138.4506310079
           1        3                -10.3030408815                -10.3029120678
           1        4                  5.0238999146                  4.9457540310 ***
           1        5                -95.3009689499                -95.3009689315
           1        6                 -3.9266496564                 -3.9420918374
           1        7                  6.3453628447                  6.1632372158 ***
           1        8                  6.2883050744                  6.2861881409
           1        9                 19.3222464920                 19.3177041052
 * Note: Onsite integrals marked "***" above are less accurate than
 * onsite_accuracy_threshold =    0.03000 eV. Usually, this is harmless.
 * When in doubt, tighten the "radial" and/or "radial_multiplier" flags to check.

  Preparing densities etc. for the partition functions (integrals / Hartree potential).

  Preparations completed.
  max(cpu_time)          :      0.083 s.
  Wall clock time (cpu1) :      0.082 s.
------------------------------------------------------------
  After prepare_scf [GB]:      4.79

  Initializing index lists of integration centers etc. from given atomic structure:
  Mapping all atomic coordinates to central unit cell.

  Initializing the k-points
  Using symmetry for reducing the k-points
  | k-points reduced from:       64 to       36
  | Number of k-points                             :        36
  The eigenvectors in the calculations are COMPLEX.
  | K-points in task   0:         6
  | K-points in task   1:         6
  | K-points in task   2:         6
  | K-points in task   3:         6
  | K-points in task   4:         6
  | K-points in task   5:         6
  | Number of basis functions in the Hamiltonian integrals :      3169
  | Number of basis functions in a single unit cell        :       200
  | Number of centers in hartree potential         :      1026
  | Number of centers in hartree multipole         :       498
  | Number of centers in electron density summation:       366
  | Number of centers in basis integrals           :       366
  | Number of centers in integrals                 :       143
  | Number of centers in hamiltonian               :       366
  | Consuming         49 KiB for k_phase.
  | Number of super-cells (origin) [n_cells]                     :         729
  | Number of super-cells (after PM_index) [n_cells]             :          88
  | Number of super-cells in hamiltonian [n_cells_in_hamiltonian]:          88
  | Size of matrix packed + index [n_hamiltonian_matrix_size] :      355977
  After initialize_bc_dependent_lists [GB]:      4.79
* Skipping the SCF initialization for now - done inside wrapper      *
  @ DRIVER MODE: Connecting to host:port localhost       10001
  @ DRIVER MODE: Message from server: STATUS      
  @ DRIVER MODE: Message from server: POSDATA     
  @ DRIVER MODE: Received positions 

  Initializing index lists of integration centers etc. from given atomic structure:
  Mapping all atomic coordinates to central unit cell.

  Initializing the k-points
  Using symmetry for reducing the k-points
  | k-points reduced from:       64 to       36
  | Number of k-points                             :        36
  The eigenvectors in the calculations are COMPLEX.
  | K-points in task   0:         6
  | K-points in task   1:         6
  | K-points in task   2:         6
  | K-points in task   3:         6
  | K-points in task   4:         6
  | K-points in task   5:         6
  | Number of basis functions in the Hamiltonian integrals :      3169
  | Number of basis functions in a single unit cell        :       200
  | Number of centers in hartree potential         :      1026
  | Number of centers in hartree multipole         :       498
  | Number of centers in electron density summation:       366
  | Number of centers in basis integrals           :       366
  | Number of centers in integrals                 :       143
  | Number of centers in hamiltonian               :       366
  | Consuming         49 KiB for k_phase.
  | Number of super-cells (origin) [n_cells]                     :         729
  | Number of super-cells (after PM_index) [n_cells]             :          88
  | Number of super-cells in hamiltonian [n_cells_in_hamiltonian]:          88
  | Size of matrix packed + index [n_hamiltonian_matrix_size] :      355977

------------------------------------------------------------
          Begin self-consistency loop: Initialization.

          Date     :  20250610, Time     :  175300.367
------------------------------------------------------------
  Available memory per node after initialize_hartree_non_periodic_ewald [GB]:      4.79
  | Estimated reciprocal-space cutoff momentum G_max:         2.45990369 bohr^-1 .
  | Reciprocal lattice points for long-range Hartree potential:     250
  Available memory per node after initialize_recip_hartree_potential [GB]:      4.79
  Available memory per node after initialize_scalapack [GB]:      4.79
  Available memory per node after aims_elsi_init_scf [GB]:      4.79
  Available memory per node after initialize_fixed_grids [GB]:      4.79
  Partitioning the integration grid into batches with parallel hashing+maxmin method.
  | Number of batches:      697
  | Maximal batch size:     121
  | Minimal batch size:      50
  | Average batch size:      64.321
  | Standard deviation of batch sizes:      14.605

  Integration load balanced across     6 MPI tasks.
  Work distribution over tasks is as follows:
  Task     0 has       7464 integration points.
  Task     1 has       7480 integration points.
  Task     2 has       7505 integration points.
  Task     3 has       7441 integration points.
  Task     4 has       7463 integration points.
  Task     5 has       7479 integration points.
  Available memory per node after partition_grid [GB]:      4.79
  Initializing partition tables, free-atom densities, potentials, etc. across the integration grid (initialize_grid_storage).
  | initialize_grid_storage: Actual outermost partition radius vs. multipole_radius_free
  | (-- VB: in principle, multipole_radius_free should be larger, hence this output)
  | Species        1: Confinement radius =              4.999999999999999 AA, multipole_radius_free =              5.000694715736543 AA.
  | Species        1: outer_partition_radius set to              5.000694715736543 AA .
  | The sparse table of interatomic distances needs        553.28 kbyte instead of      1071.65 kbyte of memory.
  | Net number of integration points:    44832
  | of which are non-zero points    :    38516
  | Numerical average free-atom electrostatic potential    :    -13.99977980 eV
  Available memory per node after initialize_grid_storage_p1 [GB]:      4.79
  Renormalizing the initial density to the exact electron count on the 3D integration grid.
  | Initial density: Formal number of electrons (from input files) :     112.0000000000
  | Integrated number of electrons on 3D grid     :     112.0226780330
  | Charge integration error                      :       0.0226780330
  | Normalization factor for density and gradient :       0.9997975586
  Renormalizing the free-atom superposition density to the exact electron count on the 3D integration grid.
  | Formal number of electrons (from input files) :     112.0000000000
  | Integrated number of electrons on 3D grid     :     112.0226780330
  | Charge integration error                      :       0.0226780330
  | Normalization factor for density and gradient :       0.9997975586
  Obtaining max. number of non-zero basis functions in each batch (get_n_compute_maxes).
  | Maximal number of non-zero basis functions:      727 in task     0
  | Maximal number of non-zero basis functions:      733 in task     1
  | Maximal number of non-zero basis functions:      726 in task     2
  | Maximal number of non-zero basis functions:      737 in task     3
  | Maximal number of non-zero basis functions:      731 in task     4
  | Maximal number of non-zero basis functions:      747 in task     5
  Available memory per node after get_n_compute_maxes_p1 [GB]:      4.79
  Allocating        1.465 MB for KS_eigenvector_complex
  Available memory per node after allocate_matrices [GB]:      4.79
  Available memory per node after init_comm_sparse_local_matrix_scalapack [GB]:      4.79
  Integrating Hamiltonian matrix: batch-based integration.
  Time summed over all CPUs for integration: real work        4.276 s, elapsed        4.486 s
  Available memory per node after integrate hamiltonian matrix [GB]:      4.79
  Integrating overlap matrix.
  Time summed over all CPUs for integration: real work        3.425 s, elapsed        3.494 s
  Available memory per node after integrate ovlp matrix [GB]:      4.79
  Available memory per node after ASI_callbacks invoke [GB]:      4.79
  Available memory per node after save_overlap_scalapack [GB]:      4.79

  Updating Kohn-Sham eigenvalues and eigenvectors using ELSI and the (modified) LAPACK eigensolver.

  Obtaining occupation numbers and electronic chemical potential using ELSI.
  | Note that, for insulating systems, the printed 'chemical potential' value is not uniquely defined.
  | It can be anywhere in the energy gap, as long as it correctly separates occupied and unoccupied states.
  | In systems with a gap, the physically relevant chemical potential is the VBM or HOMO.

  | Chemical potential (Fermi level):    -6.07402426 eV
  Available memory per node after advance_KS_solution [GB]:      4.79
  Writing Kohn-Sham eigenvalues.
  K-point:       1 at    0.000000    0.000000    0.000000 (in units of recip. lattice)

  State    Occupation    Eigenvalue [Ha]    Eigenvalue [eV]
      1       2.00000         -65.517459        -1782.82077
      2       2.00000         -65.517459        -1782.82077
      3       2.00000         -65.517333        -1782.81734
      4       2.00000         -65.517330        -1782.81725
      5       2.00000         -65.517330        -1782.81725
      6       2.00000         -65.517330        -1782.81725
      7       2.00000         -65.517202        -1782.81377
      8       2.00000         -65.517202        -1782.81377
      9       2.00000          -5.119564         -139.31042
     10       2.00000          -5.119460         -139.30760
     11       2.00000          -5.119312         -139.30357
     12       2.00000          -5.119308         -139.30347
     13       2.00000          -5.119308         -139.30347
     14       2.00000          -5.119307         -139.30343
     15       2.00000          -5.119159         -139.29939
     16       2.00000          -5.119056         -139.29659
     17       2.00000          -3.534033          -96.16594
     18       2.00000          -3.533984          -96.16460
     19       2.00000          -3.533961          -96.16397
     20       2.00000          -3.533958          -96.16390
     21       2.00000          -3.533946          -96.16356
     22       2.00000          -3.533854          -96.16107
     23       2.00000          -3.533831          -96.16044
     24       2.00000          -3.533784          -96.15916
     25       2.00000          -3.533742          -96.15802
     26       2.00000          -3.533411          -96.14902
     27       2.00000          -3.533399          -96.14868
     28       2.00000          -3.533396          -96.14859
     29       2.00000          -3.533396          -96.14859
     30       2.00000          -3.533388          -96.14837
     31       2.00000          -3.533379          -96.14815
     32       2.00000          -3.533031          -96.13866
     33       2.00000          -3.533007          -96.13800
     34       2.00000          -3.532960          -96.13673
     35       2.00000          -3.532931          -96.13594
     36       2.00000          -3.532843          -96.13355
     37       2.00000          -3.532837          -96.13339
     38       2.00000          -3.532827          -96.13312
     39       2.00000          -3.532809          -96.13264
     40       2.00000          -3.532777          -96.13175
     41       2.00000          -0.688977          -18.74801
     42       2.00000          -0.531546          -14.46411
     43       2.00000          -0.531209          -14.45493
     44       2.00000          -0.530835          -14.44474
     45       2.00000          -0.530834          -14.44473
     46       2.00000          -0.530464          -14.43466
     47       2.00000          -0.530123          -14.42538
     48       2.00000          -0.344981           -9.38740
     49       2.00000          -0.344654           -9.37852
     50       2.00000          -0.344628           -9.37780
     51       2.00000          -0.344625           -9.37771
     52       2.00000          -0.344601           -9.37708
     53       2.00000          -0.344276           -9.36822
     54       2.00000          -0.239423           -6.51504
     55       2.00000          -0.238924           -6.50145
     56       2.00000          -0.238422           -6.48778
     57       0.00000          -0.204805           -5.57303
     58       0.00000          -0.204673           -5.56944
     59       0.00000          -0.204387           -5.56166
     60       0.00000          -0.204386           -5.56164
     61       0.00000          -0.204105           -5.55398
     62       0.00000          -0.203971           -5.55034
     63       0.00000          -0.134421           -3.65777
     64       0.00000          -0.134155           -3.65053
     65       0.00000          -0.133892           -3.64340
     66       0.00000          -0.091848           -2.49931
     67       0.00000           0.061453            1.67221
     68       0.00000           0.061458            1.67235
     69       0.00000           0.088131            2.39817
     70       0.00000           0.155701            4.23683
     71       0.00000           0.155960            4.24389
     72       0.00000           0.156136            4.24869
     73       0.00000           0.156150            4.24905
     74       0.00000           0.156299            4.25312
     75       0.00000           0.156568            4.26043
     76       0.00000           0.179594            4.88701
     77       0.00000           0.180239            4.90455
     78       0.00000           0.180297            4.90613
     79       0.00000           0.180304            4.90632
     80       0.00000           0.180372            4.90817

  What follows are estimated values for band gap, HOMO, LUMO, etc.
  | They are estimated on a discrete k-point grid and not necessarily exact.
  | For converged numbers, create a DOS and/or band structure plot on a denser k-grid.

  Highest occupied state (VBM) at     -6.48778373 eV (relative to internal zero)
  | Occupation number:      2.00000000
  | K-point:       1 at    0.000000    0.000000    0.000000 (in units of recip. lattice)

  Lowest unoccupied state (CBM) at    -5.66026479 eV (relative to internal zero)
  | Occupation number:      0.00000000
  | K-point:      11 at    0.250000    0.000000    0.000000 (in units of recip. lattice)

  The gap value is above 0.2 eV. Unless you are using a very sparse k-point grid,
  this system is most likely an insulator or a semiconductor.
  ESTIMATED overall HOMO-LUMO gap:      0.82751894 eV between HOMO at k-point 1 and LUMO at k-point 11
  | This appears to be an indirect band gap.
  | Smallest direct gap :      0.91475500 eV for k_point 1 at    0.000000    0.000000    0.000000 (in units of recip. lattice)
  Calculating total energy contributions from superposition of free atom densities.

  Total energy components:
  | Sum of eigenvalues            :       -1313.47142807 Ha      -35741.37605897 eV
  | XC energy correction          :        -158.78147692 Ha       -4320.66382002 eV
  | XC potential correction       :         209.77494166 Ha        5708.26659597 eV
  | Free-atom electrostatic energy:       -1052.50801148 Ha      -28640.20018976 eV
  | Hartree energy correction     :          -0.00000000 Ha          -0.00000000 eV
  | Entropy correction            :          -0.00000000 Ha          -0.00000000 eV
  | ---------------------------
  | Total energy                  :       -2314.98597481 Ha      -62993.97347279 eV
  | Total energy, T -> 0          :       -2314.98597481 Ha      -62993.97347279 eV  <-- do not rely on this value for anything but (periodic) metals
  | Electronic free energy        :       -2314.98597481 Ha      -62993.97347279 eV

  Derived energy quantities:
  | Kinetic energy                :        2319.19168512 Ha       63108.41667308 eV
  | Electrostatic energy          :       -4475.39618301 Ha     -121781.72632585 eV
  | Energy correction for multipole
  | error in Hartree potential    :           0.00000000 Ha           0.00000000 eV
  | Sum of eigenvalues per atom                           :       -4467.67200737 eV
  | Total energy (T->0) per atom                          :       -7874.24668410 eV  <-- do not rely on this value for anything but (periodic) metals
  | Electronic free energy per atom                       :       -7874.24668410 eV
  Initialize hartree_potential_storage
  Max. number of atoms included in rho_multipole:            8

  End scf initialization - timings             :  max(cpu_time)    wall_clock(cpu1)
  | Time for scf. initialization                :        1.724 s           1.724 s
  | Boundary condition initialization           :        0.013 s           0.014 s
  | Integration                                 :        1.342 s           1.342 s
  | Solution of K.-S. eqns.                     :        0.228 s           0.228 s
  | Grid partitioning                           :        0.032 s           0.031 s
  | Preloading free-atom quantities on grid     :        0.108 s           0.108 s
  | Free-atom superposition energy              :        0.012 s           0.012 s
  | Total energy evaluation                     :        0.000 s           0.001 s

  Partial memory accounting:
  | Current value for overall tracked memory usage:
  |   Minimum:        8.299 MB (on task 0)
  |   Maximum:        8.299 MB (on task 0)
  |   Average:        8.299 MB
  | Peak value for overall tracked memory usage:
  |   Minimum:       14.331 MB (on task 2 after allocating wave)
  |   Maximum:       14.625 MB (on task 5 after allocating wave)
  |   Average:       14.436 MB
  | Largest tracked array allocation so far:
  |   Minimum:        4.021 MB (hamiltonian_shell on task 2)
  |   Maximum:        4.257 MB (hamiltonian_shell on task 5)
  |   Average:        4.105 MB
  Note:  These values currently only include a subset of arrays which are explicitly tracked.
  The "true" memory usage will be greater.
------------------------------------------------------------
  Time for density update prior                :  max(cpu_time)    wall_clock(cpu1)
  | self-consistency iterative process          :        1.145 s           1.145 s
------------------------------------------------------------
Convergence:    q app. |  density  | eigen (eV) | Etot (eV) | forces (eV/A) |       CPU time |     Clock time
  SCF    1 : -0.58E-13 |  0.24E+00 |   0.63E+01 |  0.12E+00 |             . |        2.145 s |        2.145 s
  SCF    2 : -0.13E-12 |  0.22E+00 |   0.97E+02 |  0.77E+00 |             . |        2.148 s |        2.148 s
  SCF    3 : -0.21E-12 |  0.34E-01 |  -0.36E+02 |  0.49E-01 |             . |        2.148 s |        2.149 s
  SCF    4 : -0.20E-12 |  0.18E-01 |   0.64E+01 |  0.39E-02 |             . |        2.154 s |        2.154 s
  SCF    5 : -0.18E-12 |  0.55E-02 |  -0.15E+01 |  0.17E-02 |             . |        2.147 s |        2.148 s
  SCF    6 : -0.25E-12 |  0.43E-03 |  -0.27E+00 |  0.17E-03 |             . |        2.147 s |        2.147 s
  SCF    7 : -0.14E-13 |  0.13E-03 |   0.96E-01 | -0.39E-04 |             . |        2.152 s |        2.152 s
  SCF    8 : -0.14E-12 |  0.48E-04 |  -0.34E-01 |  0.25E-04 |             . |        2.147 s |        2.148 s
  SCF    9 : -0.47E-13 |  0.62E-04 |   0.41E-01 | -0.11E-04 |             . |        2.144 s |        2.144 s
  SCF   10 : -0.43E-13 |  0.54E-05 |   0.41E-02 | -0.95E-06 |             . |        2.153 s |        2.153 s
  SCF   11 : -0.36E-13 |  0.52E-06 |  -0.49E-03 |  0.50E-07 |             . |        2.153 s |        2.153 s
  SCF   12 : -0.37E-12 |  0.14E-06 |   0.11E-03 | -0.65E-08 |      0.68E-01 |       14.154 s |       14.154 s

  Total energy components:
  | Sum of eigenvalues            :       -1310.83951971 Ha      -35669.75818850 eV
  | XC energy correction          :        -158.98689414 Ha       -4326.25350686 eV
  | XC potential correction       :         210.04539361 Ha        5715.62596785 eV
  | Free-atom electrostatic energy:       -1052.50801148 Ha      -28640.20018976 eV
  | Hartree energy correction     :          -2.66237837 Ha         -72.44700153 eV
  | Entropy correction            :          -0.00000000 Ha          -0.00000000 eV
  | ---------------------------
  | Total energy                  :       -2314.95141009 Ha      -62993.03291881 eV
  | Total energy, T -> 0          :       -2314.95141009 Ha      -62993.03291881 eV  <-- do not rely on this value for anything but (periodic) metals
  | Electronic free energy        :       -2314.95141009 Ha      -62993.03291881 eV

  Derived energy quantities:
  | Kinetic energy                :        2319.47495550 Ha       63116.12485210 eV
  | Electrostatic energy          :       -4475.43947145 Ha     -121782.90426405 eV
  | Energy correction for multipole
  | error in Hartree potential    :           0.06484370 Ha           1.76448691 eV
  | Sum of eigenvalues per atom                           :       -4458.71977356 eV
  | Total energy (T->0) per atom                          :       -7874.12911485 eV  <-- do not rely on this value for anything but (periodic) metals
  | Electronic free energy per atom                       :       -7874.12911485 eV
  What follows are estimated values for band gap, HOMO, LUMO, etc.
  | They are estimated on a discrete k-point grid and not necessarily exact.
  | For converged numbers, create a DOS and/or band structure plot on a denser k-grid.

  Highest occupied state (VBM) at     -5.92183609 eV (relative to internal zero)
  | Occupation number:      2.00000000
  | K-point:       1 at    0.000000    0.000000    0.000000 (in units of recip. lattice)

  Lowest unoccupied state (CBM) at    -5.49242389 eV (relative to internal zero)
  | Occupation number:      0.00000000
  | K-point:      11 at    0.250000    0.000000    0.000000 (in units of recip. lattice)

  The gap value is above 0.2 eV. Unless you are using a very sparse k-point grid,
  this system is most likely an insulator or a semiconductor.
  ESTIMATED overall HOMO-LUMO gap:      0.42941221 eV between HOMO at k-point 1 and LUMO at k-point 11
  | This appears to be an indirect band gap.
  | Smallest direct gap :      0.48881506 eV for k_point 1 at    0.000000    0.000000    0.000000 (in units of recip. lattice)

  | Chemical Potential                          :    -5.70712999 eV
  | Note that, for insulating systems, the printed 'chemical potential' value is not uniquely defined.
  | It can be anywhere in the energy gap, as long as it correctly separates occupied and unoccupied states.
  | In systems with a gap, the physically relevant chemical potential is the VBM or HOMO.

  Self-consistency cycle converged.

  Removing unitary transformations (pure translations, rotations) from forces on atoms.
  Atomic forces before filtering:
  | Net force on center of mass :  -0.194386E-05 -0.279869E-07 -0.186060E-07 eV/A
  Atomic forces after filtering:
  | Net force on center of mass :   0.167256E-16 -0.557519E-17  0.000000E+00 eV/A

  Energy and forces in a compact form:
  | Total energy uncorrected      :         -0.629930329188084E+05 eV
  | Total energy corrected        :         -0.629930329188084E+05 eV  <-- do not rely on this value for anything but (periodic) metals
  | Electronic free energy        :         -0.629930329188084E+05 eV
  Total atomic forces (unitary forces cleaned) [eV/Ang]:
  |    1         -0.153582712628982E+00          0.246928768034200E-08         -0.751800174598929E-08
  |    2         -0.175855947495707E-01          0.735523641658300E-08         -0.159087311759145E-08
  |    3          0.998709627246205E-02          0.478932932457851E-08          0.314906390317147E-08
  |    4          0.998709596177004E-02         -0.669792317205703E-08          0.118798539859179E-08
  |    5          0.379674792560957E-01          0.308491709205708E-01          0.308491725992083E-01
  |    6          0.379674770736936E-01         -0.308491706929621E-01         -0.308491712214136E-01
  |    7          0.376295843193027E-01         -0.301180568888796E-01          0.301180531303484E-01
  |    8          0.376295744952281E-01          0.301180487453407E-01         -0.301180497363175E-01

  Removing unitary transformations (pure translations, rotations) from forces on atoms.
  Atomic forces before filtering:
  | Net force on center of mass :   0.167256E-16 -0.557519E-17  0.000000E+00 eV/A
  Atomic forces after filtering:
  | Net force on center of mass :  -0.278760E-16  0.000000E+00  0.000000E+00 eV/A
  @ DRIVER - WARNING: the stress tensor will not be computed
 ------------------------------------------------------------------------
 Atomic structure that was used in the preceding time step of the wrapper
                         x [A]             y [A]             z [A]
  lattice_vector         5.31754617       -0.00000000       -0.00000000
  lattice_vector        -0.00000000        5.31754617        0.00000000
  lattice_vector         0.00000000        0.00000000        5.31754617

            atom         0.01000000       -0.00000000       -0.00000000  Si
            atom        -0.00000000        2.65877308        2.65877308  Si
            atom         2.65877308        0.00000000        2.65877308  Si
            atom         2.65877308        2.65877308        0.00000000  Si
            atom         1.32938654        1.32938654        1.32938654  Si
            atom         1.32938654        3.98815963        3.98815963  Si
            atom         3.98815963        1.32938654        3.98815963  Si
            atom         3.98815963        3.98815963        1.32938654  Si
 ------------------------------------------------------------------------
  @ DRIVER MODE: Message from server: STATUS      
  @ DRIVER MODE: Message from server: GETFORCE    
  @ DRIVER MODE: Returning v,forces,stress 

------------------------------------------------------------------------------
  Final output of selected total energy values:

  The following output summarizes some interesting total energy values
  at the end of a run (AFTER all relaxation, molecular dynamics, etc.).

  | Total energy of the DFT / Hartree-Fock s.c.f. calculation      :         -62993.032918808 eV
  | Final zero-broadening corrected energy (caution - metals only) :         -62993.032918808 eV
  | For reference only, the value of 1 Hartree used in FHI-aims is :             27.211384500 eV
  | For reference only, the overall average (free atom contribution
  | + realspace contribution) of the electrostatic potential after
  | s.c.f. convergence is                                          :            -13.649019530 eV

  Before relying on these values, please be sure to understand exactly which
  total energy value is referred to by a given number. Different objects may
  all carry the same name 'total energy'. Definitions:

  Total energy of the DFT / Hartree-Fock s.c.f. calculation:
  | Note that this energy does not include ANY quantities calculated after the
  | s.c.f. cycle, in particular not ANY RPA, MP2, etc. many-body perturbation terms.

  Final zero-broadening corrected energy:
  | For metallic systems only, a broadening of the occupation numbers at the Fermi
  | level can be extrapolated back to zero broadening by an electron-gas inspired
  | formula. For all systems that are not real metals, this value can be
  | meaningless and should be avoided.

------------------------------------------------------------------------------
  Methods described in the following list of references were used in this FHI-aims run.
  If you publish the results, please make sure to cite these reference if they apply.
  FHI-aims is an academic code, and for our developers (often, Ph.D. students
  and postdocs), scientific credit in the community is essential.
  Thank you for helping us!

  For any use of FHI-aims, please cite:

    Volker Blum, Ralf Gehrke, Felix Hanke, Paula Havu, Ville Havu,
    Xinguo Ren, Karsten Reuter, and Matthias Scheffler
    'Ab initio molecular simulations with numeric atom-centered orbitals'
    Computer Physics Communications 180, 2175-2196 (2009)
    http://doi.org/10.1016/j.cpc.2009.06.022


  The provided symmetry information was generated with SPGlib:

    Atsushi Togo, Yusuke Seto, Dimitar Pashov
    SPGlib 1.7.3 obtained from http://spglib.sourceforge.net
    Licence: New BSD license
    Copyright (C) 2008 Atsushi Togo


  The ELSI infrastructure was used in your run to solve the Kohn-Sham electronic structure.
  Please check out https://wordpress.elsi-interchange.org to learn more.
  If scalability is important for your project, please acknowledge ELSI by citing:

    V. W-z. Yu, F. Corsetti, A. Garcia, W. P. Huhn, M. Jacquelin, W. Jia,
    B. Lange, L. Lin, J. Lu, W. Mi, A. Seifitokaldani, A. Vazquez-Mayagoitia,
    C. Yang, H. Yang, and V. Blum
    'ELSI: A unified software interface for Kohn-Sham electronic structure solvers'
    Computer Physics Communications 222, 267-285 (2018).
    http://doi.org/10.1016/j.cpc.2017.09.007


  For the real-space grid partitioning and parallelization used in this calculation, please cite:

    Ville Havu, Volker Blum, Paula Havu, and Matthias Scheffler,
    'Efficient O(N) integration for all-electron electronic structure calculation'
    'using numerically tabulated basis functions'
    Journal of Computational Physics 228, 8367-8379 (2009).
    http://doi.org/10.1016/j.jcp.2009.08.008

  Of course, there are many other important community references, e.g., those cited in the
  above references. Our list is limited to references that describe implementations in the
  FHI-aims code. The reason is purely practical (length of this list) - please credit others as well.
------------------------------------------------------------
Warnings summary:

At least    0 warnings were raised during execution.

------------------------------------------------------------
          Leaving FHI-aims.
          Date     :  20250610, Time     :  175341.077

          Computational steps:
          | Number of self-consistency cycles          :           12
          | Number of SCF (re)initializations          :            1

          Detailed time accounting                     :  max(cpu_time)    wall_clock(cpu1)
          | Total time                                  :       40.880 s          40.881 s
          | Preparation time                            :        0.083 s           0.082 s
          | Boundary condition initalization            :        0.013 s           0.014 s
          | Grid partitioning                           :        0.032 s           0.031 s
          | Preloading free-atom quantities on grid     :        0.108 s           0.108 s
          | Free-atom superposition energy              :        0.012 s           0.012 s
          | Total time for integrations                 :       10.424 s          10.427 s
          | Total time for solution of K.-S. equations  :        2.287 s           2.286 s
          | Total time for density & force components   :       26.283 s          26.283 s
          | Total time for mixing                       :        0.006 s           0.006 s
          | Total time for Hartree multipole update     :        0.011 s           0.008 s
          | Total time for Hartree multipole sum        :        1.044 s           1.045 s
          | Total time for total energy evaluation      :        0.001 s           0.002 s
          | Total time NSC force correction             :        0.451 s           0.450 s
          | Total time for scaled ZORA corrections      :        0.000 s           0.000 s

          Partial memory accounting:
          | Residual value for overall tracked memory usage across tasks:     0.000000 MB (should be 0.000000 MB)
          | Peak values for overall tracked memory usage:
          |   Minimum:       22.794 MB (on task 2 after allocating d_wave)
          |   Maximum:       23.298 MB (on task 5 after allocating d_wave)
          |   Average:       22.970 MB
          | Largest tracked array allocation:
          |   Minimum:        4.021 MB (hamiltonian_shell on task 2)
          |   Maximum:        4.257 MB (hamiltonian_shell on task 5)
          |   Average:        4.105 MB
          Note:  These values currently only include a subset of arrays which are explicitly tracked.
          The "true" memory usage will be greater.

          Have a nice day.
------------------------------------------------------------
