------------------------------------------------------------
          Invoking FHI-aims ...

          When using FHI-aims, please cite the following reference:

            Volker Blum, Ralf Gehrke, Felix Hanke, Paula Havu,
            Ville Havu, Xinguo Ren, Karsten Reuter, and Matthias Scheffler,
            'Ab Initio Molecular Simulations with Numeric Atom-Centered Orbitals',
            Computer Physics Communications 180, 2175-2196 (2009)

          In addition, many other developments in FHI-aims are likely important for
          your particular application. If so, please cite them. A partial list of references
          is written at the end of this file. Thank you for giving credit to the authors
          of these developments.

          For general information about FHI-aims please find us at

            https://fhi-aims.org

          Online tutorials can be found at

            https://fhi-aims-club.gitlab.io/tutorials/tutorials-overview/

          For any questions about FHI-aims, please visit our slack channel at

            https://fhi-aims.slack.com

          and our main development and support site at

            https://aims-git.rz-berlin.mpg.de .

          The latter site, in particular, has a wiki to collect information, as well
          as an issue tracker to log discussions, suggest improvements, and report issues
          or bugs. https://aims-git.rz-berlin.mpg.de is also the main development site
          of the project and all new and updated code versions can be obtained there.
          Please send an email to aims-coordinators@fhi-berlin.mpg.de and we will add
          you to these sites. They are for you and everyone is welcome there.

------------------------------------------------------------



  Date     :  20250609, Time     :  185547.957
  Time zero on CPU 1             :   0.897710000000000E-01  s.
  Internal wall clock time zero  :           518727347.957  s.

  FHI-aims created a unique identifier for this run for later identification
  aims_uuid : D80BCAC5-9AD5-4E8C-A7F1-42D4374B8C30

  Build configuration of the current instance of FHI-aims
  -------------------------------------------------------
  FHI-aims version      : 240206
  Commit number         : 583c55b2e
  CMake host system     : Darwin-23.4.0
  CMake version         : 3.29.1
  Fortran compiler      : /opt/homebrew/bin/mpif90 (GNU) version 13.2.0
  Fortran compiler flags: -O3 -fallow-argument-mismatch -ffree-line-length-none -framework accelerate
  C compiler            : /opt/homebrew/bin/mpicc (AppleClang) version 15.0.0.15000309
  C compiler flags      : -O3 -framework accelerate
  C++ compiler          : /opt/homebrew/bin/mpic++ (AppleClang) version 15.0.0.15000309
  C++ compiler flags    : -O3 -framework accelerate
  HIP compiler          :
  HIP compiler flags    :
  HIP GPU arch          :
  Using MPI
  Using ScaLAPACK
  Using LibXC
  Using i-PI
  Using RLSY
  Linking against: /Users/carbogno/Codes/2023_Scalapack/libscalapack.a

  Using        8 parallel tasks.
  Task        0 on host ThMac05.local reporting.
  Task        1 on host ThMac05.local reporting.
  Task        2 on host ThMac05.local reporting.
  Task        3 on host ThMac05.local reporting.
  Task        4 on host ThMac05.local reporting.
  Task        5 on host ThMac05.local reporting.
  Task        6 on host ThMac05.local reporting.
  Task        7 on host ThMac05.local reporting.

  Memory overcommitment: We could not find /proc/sys/vm/overcommit_memory on your system.

  Obtaining array dimensions for all initial allocations:
  
  -----------------------------------------------------------------------
  Parsing control.in (first pass over file, find array dimensions only).
  The contents of control.in will be repeated verbatim below
  unless switched off by setting 'verbatim_writeout .false.' .
  in the first line of control.in .
  -----------------------------------------------------------------------
  
  #===============================================================================
  # FHI-aims file: ./control.in
  # Created using the Atomic Simulation Environment (ASE)
  # Mon Jun  9 18:55:47 2025
  #===============================================================================
  xc                                 pw-lda
  compute_forces                     .true.
  k_grid                             2 2 2
  sc_accuracy_rho                    1e-06
  relativistic                       atomic_zora scalar
  output_level                       MD_light
  use_pimd_wrapper                   localhost 10002
  #===============================================================================
  
  ################################################################################
  #
  #  FHI-aims code project
  #  VB, Fritz-Haber Institut, 2009
  #
  #  Suggested "light" defaults for Si atom (to be pasted into control.in file)
  #  Be sure to double-check any results obtained with these settings for post-processing,
  #  e.g., with the "tight" defaults and larger basis sets.
  #
  #  2020/09/08 Added f function to "light" after reinspection of Delta test outcomes.
  #             This was done for all of Al-Cl and is a tricky decision since it makes
  #             "light" calculations measurably more expensive for these elements.
  #             Nevertheless, outcomes for P, S, Cl (and to some extent, Si) appear
  #             to justify this choice.
  #
  ################################################################################
    species        Si
  #     global species definitions
      nucleus             14
      mass                28.0855
  #
      l_hartree           4
  #
      cut_pot             3.5          1.5  1.0
      basis_dep_cutoff    1e-4
  #
      radial_base         42 5.0
      radial_multiplier   1
      angular_grids       specified
        division   0.5866   50
        division   0.9616  110
        division   1.2249  194
        division   1.3795  302
  #      division   1.4810  434
  #      division   1.5529  590
  #      division   1.6284  770
  #      division   1.7077  974
  #      division   2.4068 1202
  #      outer_grid   974
        outer_grid 302
  ################################################################################
  #
  #  Definition of "minimal" basis
  #
  ################################################################################
  #     valence basis states
      valence      3  s   2.
      valence      3  p   2.
  #     ion occupancy
      ion_occ      3  s   1.
      ion_occ      3  p   1.
  ################################################################################
  #
  #  Suggested additional basis functions. For production calculations,
  #  uncomment them one after another (the most important basis functions are
  #  listed first).
  #
  #  Constructed for dimers: 1.75 A, 2.0 A, 2.25 A, 2.75 A, 3.75 A
  #
  ################################################################################
  #  "First tier" - improvements: -571.96 meV to -37.03 meV
       hydro 3 d 4.2
       hydro 2 p 1.4
       hydro 4 f 6.2
       ionic 3 s auto
  #  "Second tier" - improvements: -16.76 meV to -3.03 meV
  #     hydro 3 d 9
  #     hydro 5 g 9.4
  #     hydro 4 p 4
  #     hydro 1 s 0.65
  #  "Third tier" - improvements: -3.89 meV to -0.60 meV
  #     ionic 3 d auto
  #     hydro 3 s 2.6
  #     hydro 4 f 8.4
  #     hydro 3 d 3.4
  #     hydro 3 p 7.8
  #  "Fourth tier" - improvements: -0.33 meV to -0.11 meV
  #     hydro 2 p 1.6
  #     hydro 5 g 10.8
  #     hydro 5 f 11.2
  #     hydro 3 d 1
  #     hydro 4 s 4.5
  #  Further basis functions that fell out of the optimization - noise
  #  level... < -0.08 meV
  #     hydro 4 d 6.6
  #     hydro 5 g 16.4
  #     hydro 4 d 9
  
  -----------------------------------------------------------------------
  Completed first pass over input file control.in .
  -----------------------------------------------------------------------
  
  
  -----------------------------------------------------------------------
  Parsing geometry.in (first pass over file, find array dimensions only).
  The contents of geometry.in will be repeated verbatim below
  unless switched off by setting 'verbatim_writeout .false.' .
  in the first line of geometry.in .
  -----------------------------------------------------------------------
  
  #=======================================================
  # FHI-aims file: ./geometry.in
  # Created using the Atomic Simulation Environment (ASE)
  # Mon Jun  9 18:55:47 2025
  #=======================================================
  lattice_vector 0.0000000004000000 10.8176651487920008 10.8176651486680004
  lattice_vector 10.8176651771760000 0.0000000003320000 10.8176651487359994
  lattice_vector 10.8176651770279992 10.8176651487159994 0.0000000004800000
  atom_frac 0.0006536593374154 0.0000000000012500 0.0000000000047500 Si
  atom_frac 0.2500000000020000 0.0000000000012500 0.0000000000047500 Si
  atom_frac 0.5000000000019998 0.0000000000012501 0.0000000000047499 Si
  atom_frac 0.7500000000020001 0.0000000000012501 0.0000000000047500 Si
  atom_frac 0.0000000000020000 0.2500000000012499 0.0000000000047500 Si
  atom_frac 0.2500000000020001 0.2500000000012501 0.0000000000047499 Si
  atom_frac 0.5000000000020001 0.2500000000012501 0.0000000000047500 Si
  atom_frac 0.7500000000020001 0.2500000000012501 0.0000000000047498 Si
  atom_frac 0.0000000000020000 0.5000000000012501 0.0000000000047501 Si
  atom_frac 0.2500000000020001 0.5000000000012501 0.0000000000047499 Si
  atom_frac 0.5000000000020001 0.5000000000012501 0.0000000000047498 Si
  atom_frac 0.7500000000020001 0.5000000000012501 0.0000000000047498 Si
  atom_frac 0.0000000000020000 0.7500000000012500 0.0000000000047499 Si
  atom_frac 0.2500000000020000 0.7500000000012500 0.0000000000047500 Si
  atom_frac 0.5000000000020001 0.7500000000012500 0.0000000000047500 Si
  atom_frac 0.7500000000020002 0.7500000000012500 0.0000000000047501 Si
  atom_frac 0.0000000000020000 0.0000000000012500 0.2500000000047500 Si
  atom_frac 0.2500000000020000 0.0000000000012501 0.2500000000047499 Si
  atom_frac 0.5000000000020001 0.0000000000012501 0.2500000000047499 Si
  atom_frac 0.7500000000020001 0.0000000000012500 0.2500000000047500 Si
  atom_frac 0.0000000000020000 0.2500000000012500 0.2500000000047500 Si
  atom_frac 0.2500000000020000 0.2500000000012501 0.2500000000047499 Si
  atom_frac 0.5000000000020002 0.2500000000012502 0.2500000000047498 Si
  atom_frac 0.7500000000020001 0.2500000000012500 0.2500000000047500 Si
  atom_frac 0.0000000000020000 0.5000000000012500 0.2500000000047500 Si
  atom_frac 0.2500000000020000 0.5000000000012501 0.2500000000047499 Si
  atom_frac 0.5000000000020001 0.5000000000012503 0.2500000000047498 Si
  atom_frac 0.7500000000020001 0.5000000000012500 0.2500000000047500 Si
  atom_frac 0.0000000000019999 0.7500000000012500 0.2500000000047499 Si
  atom_frac 0.2500000000020000 0.7500000000012502 0.2500000000047499 Si
  atom_frac 0.5000000000019998 0.7500000000012502 0.2500000000047499 Si
  atom_frac 0.7500000000020001 0.7500000000012500 0.2500000000047500 Si
  atom_frac 0.0000000000020000 0.0000000000012500 0.5000000000047500 Si
  atom_frac 0.2500000000020001 0.0000000000012501 0.5000000000047499 Si
  atom_frac 0.5000000000019998 0.0000000000012500 0.5000000000047500 Si
  atom_frac 0.7500000000019998 0.0000000000012500 0.5000000000047500 Si
  atom_frac 0.0000000000019999 0.2500000000012501 0.5000000000047500 Si
  atom_frac 0.2500000000020001 0.2500000000012501 0.5000000000047500 Si
  atom_frac 0.5000000000020000 0.2500000000012501 0.5000000000047499 Si
  atom_frac 0.7500000000020001 0.2500000000012503 0.5000000000047499 Si
  atom_frac 0.0000000000020000 0.5000000000012500 0.5000000000047499 Si
  atom_frac 0.2500000000020001 0.5000000000012502 0.5000000000047499 Si
  atom_frac 0.5000000000019998 0.5000000000012502 0.5000000000047499 Si
  atom_frac 0.7500000000019998 0.5000000000012500 0.5000000000047499 Si
  atom_frac 0.0000000000019999 0.7500000000012502 0.5000000000047500 Si
  atom_frac 0.2500000000020000 0.7500000000012500 0.5000000000047500 Si
  atom_frac 0.5000000000020001 0.7500000000012500 0.5000000000047498 Si
  atom_frac 0.7500000000020001 0.7500000000012503 0.5000000000047499 Si
  atom_frac 0.0000000000020001 0.0000000000012501 0.7500000000047498 Si
  atom_frac 0.2500000000019998 0.0000000000012501 0.7500000000047500 Si
  atom_frac 0.5000000000020002 0.0000000000012501 0.7500000000047498 Si
  atom_frac 0.7500000000020001 0.0000000000012501 0.7500000000047500 Si
  atom_frac 0.0000000000019999 0.2500000000012502 0.7500000000047498 Si
  atom_frac 0.2500000000019998 0.2500000000012502 0.7500000000047500 Si
  atom_frac 0.5000000000020002 0.2500000000012502 0.7500000000047498 Si
  atom_frac 0.7500000000019998 0.2500000000012504 0.7500000000047500 Si
  atom_frac 0.0000000000020000 0.5000000000012504 0.7500000000047498 Si
  atom_frac 0.2500000000020000 0.5000000000012503 0.7500000000047498 Si
  atom_frac 0.5000000000020001 0.5000000000012503 0.7500000000047498 Si
  atom_frac 0.7500000000020001 0.5000000000012501 0.7500000000047500 Si
  atom_frac 0.0000000000019998 0.7500000000012503 0.7500000000047501 Si
  atom_frac 0.2500000000020000 0.7500000000012502 0.7500000000047500 Si
  atom_frac 0.5000000000019998 0.7500000000012502 0.7500000000047500 Si
  atom_frac 0.7500000000020001 0.7500000000012503 0.7500000000047498 Si
  atom_frac 0.0624999999980000 0.0624999999987500 0.0624999999952500 Si
  atom_frac 0.3124999999980000 0.0624999999987501 0.0624999999952499 Si
  atom_frac 0.5624999999980000 0.0624999999987501 0.0624999999952499 Si
  atom_frac 0.8124999999979999 0.0624999999987500 0.0624999999952499 Si
  atom_frac 0.0624999999980000 0.3124999999987500 0.0624999999952499 Si
  atom_frac 0.3124999999980001 0.3124999999987501 0.0624999999952498 Si
  atom_frac 0.5624999999980000 0.3124999999987501 0.0624999999952499 Si
  atom_frac 0.8124999999980000 0.3124999999987500 0.0624999999952499 Si
  atom_frac 0.0624999999980000 0.5624999999987500 0.0624999999952499 Si
  atom_frac 0.3124999999979999 0.5624999999987501 0.0624999999952500 Si
  atom_frac 0.5624999999980000 0.5624999999987500 0.0624999999952500 Si
  atom_frac 0.8124999999980000 0.5624999999987500 0.0624999999952499 Si
  atom_frac 0.0624999999979999 0.8124999999987500 0.0624999999952500 Si
  atom_frac 0.3124999999979999 0.8124999999987500 0.0624999999952500 Si
  atom_frac 0.5624999999980000 0.8124999999987501 0.0624999999952499 Si
  atom_frac 0.8124999999979999 0.8124999999987500 0.0624999999952501 Si
  atom_frac 0.0624999999980000 0.0624999999987501 0.3124999999952499 Si
  atom_frac 0.3124999999980000 0.0624999999987500 0.3124999999952500 Si
  atom_frac 0.5624999999980002 0.0624999999987501 0.3124999999952500 Si
  atom_frac 0.8124999999979999 0.0624999999987499 0.3124999999952501 Si
  atom_frac 0.0624999999980000 0.3124999999987501 0.3124999999952500 Si
  atom_frac 0.3124999999980000 0.3124999999987501 0.3124999999952499 Si
  atom_frac 0.5624999999980000 0.3124999999987500 0.3124999999952500 Si
  atom_frac 0.8124999999980000 0.3124999999987500 0.3124999999952500 Si
  atom_frac 0.0624999999980000 0.5624999999987502 0.3124999999952501 Si
  atom_frac 0.3124999999979999 0.5624999999987500 0.3124999999952500 Si
  atom_frac 0.5624999999980000 0.5624999999987500 0.3124999999952500 Si
  atom_frac 0.8124999999979999 0.5624999999987499 0.3124999999952502 Si
  atom_frac 0.0624999999979998 0.8124999999987500 0.3124999999952501 Si
  atom_frac 0.3124999999979999 0.8124999999987500 0.3124999999952500 Si
  atom_frac 0.5624999999979999 0.8124999999987501 0.3124999999952499 Si
  atom_frac 0.8124999999979999 0.8124999999987498 0.3124999999952502 Si
  atom_frac 0.0624999999979999 0.0624999999987499 0.5624999999952501 Si
  atom_frac 0.3124999999980001 0.0624999999987502 0.5624999999952499 Si
  atom_frac 0.5624999999979998 0.0624999999987502 0.5624999999952499 Si
  atom_frac 0.8124999999979997 0.0624999999987502 0.5624999999952499 Si
  atom_frac 0.0624999999979998 0.3124999999987501 0.5624999999952501 Si
  atom_frac 0.3124999999980000 0.3124999999987502 0.5624999999952499 Si
  atom_frac 0.5624999999979998 0.3124999999987501 0.5624999999952501 Si
  atom_frac 0.8124999999979997 0.3124999999987501 0.5624999999952501 Si
  atom_frac 0.0624999999979999 0.5624999999987500 0.5624999999952501 Si
  atom_frac 0.3124999999979998 0.5624999999987500 0.5624999999952501 Si
  atom_frac 0.5624999999979998 0.5624999999987501 0.5624999999952499 Si
  atom_frac 0.8124999999979999 0.5624999999987501 0.5624999999952499 Si
  atom_frac 0.0624999999979999 0.8124999999987501 0.5624999999952501 Si
  atom_frac 0.3124999999979999 0.8124999999987500 0.5624999999952501 Si
  atom_frac 0.5624999999979998 0.8124999999987503 0.5624999999952502 Si
  atom_frac 0.8124999999979997 0.8124999999987501 0.5624999999952501 Si
  atom_frac 0.0624999999979999 0.0624999999987502 0.8124999999952500 Si
  atom_frac 0.3124999999979998 0.0624999999987502 0.8124999999952500 Si
  atom_frac 0.5624999999979998 0.0624999999987504 0.8124999999952500 Si
  atom_frac 0.8124999999979997 0.0624999999987505 0.8124999999952498 Si
  atom_frac 0.0624999999979999 0.3124999999987503 0.8124999999952500 Si
  atom_frac 0.3124999999980000 0.3124999999987501 0.8124999999952500 Si
  atom_frac 0.5624999999979998 0.3124999999987501 0.8124999999952500 Si
  atom_frac 0.8124999999980000 0.3124999999987501 0.8124999999952500 Si
  atom_frac 0.0624999999979998 0.5624999999987502 0.8124999999952500 Si
  atom_frac 0.3124999999979998 0.5624999999987502 0.8124999999952500 Si
  atom_frac 0.5624999999979997 0.5624999999987502 0.8124999999952501 Si
  atom_frac 0.8124999999979999 0.5624999999987503 0.8124999999952500 Si
  atom_frac 0.0624999999979998 0.8124999999987503 0.8124999999952500 Si
  atom_frac 0.3124999999979999 0.8124999999987501 0.8124999999952501 Si
  atom_frac 0.5624999999979996 0.8124999999987501 0.8124999999952501 Si
  atom_frac 0.8124999999979999 0.8124999999987498 0.8124999999952501 Si
  
  -----------------------------------------------------------------------
  Completed first pass over input file geometry.in .
  -----------------------------------------------------------------------
  

  Basic array size parameters:
  | Number of species                 :        1
  | Number of atoms                   :      128
  | Number of lattice vectors         :        3
  | Max. basis fn. angular momentum   :        3
  | Max. atomic/ionic basis occupied n:        3
  | Max. number of basis fn. types    :        3
  | Max. radial fns per species/type  :        5
  | Max. logarithmic grid size        :     1346
  | Max. radial integration grid size :       42
  | Max. angular integration grid size:      302
  | Max. angular grid division number :        8
  | Radial grid for Hartree potential :     1346
  | Number of spin channels           :        1

------------------------------------------------------------
          Reading file control.in.
------------------------------------------------------------
  XC: Using Perdew-Wang parametrisation of Ceperley-Alder LDA.
  Forces will be computed.
  Found k-point grid:         2         2         2
  Convergence accuracy of self-consistent charge density:  0.1000E-05
  Scalar relativistic treatment of kinetic energy: on-site free-atom approximation to ZORA.
  Requested output level: MD_light
  Using external wrapper (i-PI) for performing (path integral) molecular dynamics
  **Attention: initial geometry.in file will be ignored!

  Reading configuration options for species Si                  .
  | Found nuclear charge :  14.0000
  | Found atomic mass :    28.085500000000000      amu
  | Found l_max for Hartree potential  :   4
  | Found cutoff potl. onset [A], width [A], scale factor :    3.50000    1.50000    1.00000
  | Threshold for basis-dependent cutoff potential is   0.100000E-03
  | Found data for basic radial integration grid :    42 points, outermost radius =    5.000 A
  | Found multiplier for basic radial grid :   1
  | Found angular grid specification: user-specified.
  | Specified grid contains     5 separate shells.
  | Check grid settings after all constraints further below.
  | Found free-atom valence shell :  3 s   2.000
  | Found free-atom valence shell :  3 p   2.000
  | Found free-ion valence shell :  3 s   1.000
  | Found free-ion valence shell :  3 p   1.000
  | Found hydrogenic basis function :  3 d   4.200
  | Found hydrogenic basis function :  2 p   1.400
  | Found hydrogenic basis function :  4 f   6.200
  | Found ionic basis function :  3 s , default cutoff radius.
  Species Si                  : Missing cutoff potential type.
  Defaulting to exp(1/x)/(1-x)^2 type cutoff potential.
  Species Si: No 'logarithmic' tag. Using default grid for free atom:
  | Default logarithmic grid data [bohr] : 0.1000E-03 0.1000E+03 0.1012E+01
  | Will include ionic basis functions of  2.0-fold positive Si                   ion.
  Species Si: On-site basis accuracy parameter (for Gram-Schmidt orthonormalisation) not specified.
  Using default value basis_acc =  0.1000000E-03.
  Species Si                  : Using default innermost maximum threshold i_radial=  2 for radial functions.
  Species Si                  : Default cutoff onset for free atom density etc. : 0.35000000E+01 AA.
  Species Si                  : Basic radial grid will be enhanced according to radial_multiplier =   1, to contain    42 grid points.

  Finished reading input file 'control.in'.

------------------------------------------------------------


------------------------------------------------------------
          Reading geometry description geometry.in.
------------------------------------------------------------
  | The smallest distance between any two atoms is         2.33393538 AA.
  | The first atom of this pair is atom number                      1 .
  | The second atom of this pair is atom number                    65 .
  | Wigner-Seitz cell of the first atom image           0     0     0 .
  | (The Wigner-Seitz cell of the second atom is 0 0 0  by definition.)

  Symmetry information by spglib:
  | Precision set to  0.1E-04
  | Number of Operations  : 2
  | Space group           : 8
  | International         : Cm
  | Schoenflies           : Cs^3
  Input structure read successfully.
  The structure contains      128 atoms,  and a total of       1792.000 electrons.

  Input geometry:
  | Unit cell:
  |        0.00000000       10.81766515       10.81766515
  |       10.81766518        0.00000000       10.81766515
  |       10.81766518       10.81766515        0.00000000
  | Atomic structure:
  |       Atom                x [A]            y [A]            z [A]
  |    1: Species Si            0.00000000        0.00707107        0.00707107
  |    2: Species Si            0.00000000        2.70441629        2.70441629
  |    3: Species Si            0.00000000        5.40883257        5.40883257
  |    4: Species Si            0.00000000        8.11324886        8.11324886
  |    5: Species Si            2.70441629        0.00000000        2.70441629
  |    6: Species Si            2.70441629        2.70441629        5.40883257
  |    7: Species Si            2.70441629        5.40883257        8.11324886
  |    8: Species Si            2.70441629        8.11324886       10.81766515
  |    9: Species Si            5.40883259        0.00000000        5.40883257
  |   10: Species Si            5.40883259        2.70441629        8.11324886
  |   11: Species Si            5.40883259        5.40883257       10.81766515
  |   12: Species Si            5.40883259        8.11324886       13.52208144
  |   13: Species Si            8.11324888        0.00000000        8.11324886
  |   14: Species Si            8.11324888        2.70441629       10.81766515
  |   15: Species Si            8.11324888        5.40883257       13.52208144
  |   16: Species Si            8.11324888        8.11324886       16.22649772
  |   17: Species Si            2.70441629        2.70441629        0.00000000
  |   18: Species Si            2.70441629        5.40883257        2.70441629
  |   19: Species Si            2.70441629        8.11324886        5.40883257
  |   20: Species Si            2.70441629       10.81766515        8.11324886
  |   21: Species Si            5.40883259        2.70441629        2.70441629
  |   22: Species Si            5.40883259        5.40883257        5.40883257
  |   23: Species Si            5.40883259        8.11324886        8.11324886
  |   24: Species Si            5.40883259       10.81766515       10.81766515
  |   25: Species Si            8.11324888        2.70441629        5.40883257
  |   26: Species Si            8.11324888        5.40883257        8.11324886
  |   27: Species Si            8.11324888        8.11324886       10.81766515
  |   28: Species Si            8.11324888       10.81766515       13.52208144
  |   29: Species Si           10.81766518        2.70441629        8.11324886
  |   30: Species Si           10.81766518        5.40883257       10.81766515
  |   31: Species Si           10.81766518        8.11324886       13.52208144
  |   32: Species Si           10.81766518       10.81766515       16.22649772
  |   33: Species Si            5.40883259        5.40883257        0.00000000
  |   34: Species Si            5.40883259        8.11324886        2.70441629
  |   35: Species Si            5.40883259       10.81766515        5.40883257
  |   36: Species Si            5.40883259       13.52208144        8.11324886
  |   37: Species Si            8.11324888        5.40883257        2.70441629
  |   38: Species Si            8.11324888        8.11324886        5.40883257
  |   39: Species Si            8.11324888       10.81766515        8.11324886
  |   40: Species Si            8.11324888       13.52208144       10.81766515
  |   41: Species Si           10.81766518        5.40883257        5.40883257
  |   42: Species Si           10.81766518        8.11324886        8.11324886
  |   43: Species Si           10.81766518       10.81766515       10.81766515
  |   44: Species Si           10.81766518       13.52208144       13.52208144
  |   45: Species Si           13.52208147        5.40883257        8.11324886
  |   46: Species Si           13.52208147        8.11324886       10.81766515
  |   47: Species Si           13.52208147       10.81766515       13.52208144
  |   48: Species Si           13.52208147       13.52208144       16.22649772
  |   49: Species Si            8.11324888        8.11324886        0.00000000
  |   50: Species Si            8.11324888       10.81766515        2.70441629
  |   51: Species Si            8.11324888       13.52208144        5.40883257
  |   52: Species Si            8.11324888       16.22649772        8.11324886
  |   53: Species Si           10.81766518        8.11324886        2.70441629
  |   54: Species Si           10.81766518       10.81766515        5.40883257
  |   55: Species Si           10.81766518       13.52208144        8.11324886
  |   56: Species Si           10.81766518       16.22649772       10.81766515
  |   57: Species Si           13.52208147        8.11324886        5.40883257
  |   58: Species Si           13.52208147       10.81766515        8.11324886
  |   59: Species Si           13.52208147       13.52208144       10.81766515
  |   60: Species Si           13.52208147       16.22649772       13.52208144
  |   61: Species Si           16.22649777        8.11324886        8.11324886
  |   62: Species Si           16.22649777       10.81766515       10.81766515
  |   63: Species Si           16.22649777       13.52208144       13.52208144
  |   64: Species Si           16.22649777       16.22649772       16.22649772
  |   65: Species Si            1.35220815        1.35220814        1.35220814
  |   66: Species Si            1.35220815        4.05662443        4.05662443
  |   67: Species Si            1.35220815        6.76104072        6.76104072
  |   68: Species Si            1.35220815        9.46545701        9.46545701
  |   69: Species Si            4.05662444        1.35220814        4.05662443
  |   70: Species Si            4.05662444        4.05662443        6.76104072
  |   71: Species Si            4.05662444        6.76104072        9.46545701
  |   72: Species Si            4.05662444        9.46545701       12.16987329
  |   73: Species Si            6.76104074        1.35220814        6.76104072
  |   74: Species Si            6.76104074        4.05662443        9.46545701
  |   75: Species Si            6.76104074        6.76104072       12.16987329
  |   76: Species Si            6.76104074        9.46545701       14.87428958
  |   77: Species Si            9.46545703        1.35220814        9.46545701
  |   78: Species Si            9.46545703        4.05662443       12.16987329
  |   79: Species Si            9.46545703        6.76104072       14.87428958
  |   80: Species Si            9.46545703        9.46545701       17.57870587
  |   81: Species Si            4.05662444        4.05662443        1.35220814
  |   82: Species Si            4.05662444        6.76104072        4.05662443
  |   83: Species Si            4.05662444        9.46545701        6.76104072
  |   84: Species Si            4.05662444       12.16987329        9.46545701
  |   85: Species Si            6.76104074        4.05662443        4.05662443
  |   86: Species Si            6.76104074        6.76104072        6.76104072
  |   87: Species Si            6.76104074        9.46545701        9.46545701
  |   88: Species Si            6.76104074       12.16987329       12.16987329
  |   89: Species Si            9.46545703        4.05662443        6.76104072
  |   90: Species Si            9.46545703        6.76104072        9.46545701
  |   91: Species Si            9.46545703        9.46545701       12.16987329
  |   92: Species Si            9.46545703       12.16987329       14.87428958
  |   93: Species Si           12.16987332        4.05662443        9.46545701
  |   94: Species Si           12.16987332        6.76104072       12.16987329
  |   95: Species Si           12.16987332        9.46545701       14.87428958
  |   96: Species Si           12.16987332       12.16987329       17.57870587
  |   97: Species Si            6.76104074        6.76104072        1.35220814
  |   98: Species Si            6.76104074        9.46545701        4.05662443
  |   99: Species Si            6.76104074       12.16987329        6.76104072
  |  100: Species Si            6.76104074       14.87428958        9.46545701
  |  101: Species Si            9.46545703        6.76104072        4.05662443
  |  102: Species Si            9.46545703        9.46545701        6.76104072
  |  103: Species Si            9.46545703       12.16987329        9.46545701
  |  104: Species Si            9.46545703       14.87428958       12.16987329
  |  105: Species Si           12.16987332        6.76104072        6.76104072
  |  106: Species Si           12.16987332        9.46545701        9.46545701
  |  107: Species Si           12.16987332       12.16987329       12.16987329
  |  108: Species Si           12.16987332       14.87428958       14.87428958
  |  109: Species Si           14.87428962        6.76104072        9.46545701
  |  110: Species Si           14.87428962        9.46545701       12.16987329
  |  111: Species Si           14.87428962       12.16987329       14.87428958
  |  112: Species Si           14.87428962       14.87428958       17.57870587
  |  113: Species Si            9.46545703        9.46545701        1.35220814
  |  114: Species Si            9.46545703       12.16987329        4.05662443
  |  115: Species Si            9.46545703       14.87428958        6.76104072
  |  116: Species Si            9.46545703       17.57870587        9.46545701
  |  117: Species Si           12.16987332        9.46545701        4.05662443
  |  118: Species Si           12.16987332       12.16987329        6.76104072
  |  119: Species Si           12.16987332       14.87428958        9.46545701
  |  120: Species Si           12.16987332       17.57870587       12.16987329
  |  121: Species Si           14.87428962        9.46545701        6.76104072
  |  122: Species Si           14.87428962       12.16987329        9.46545701
  |  123: Species Si           14.87428962       14.87428958       12.16987329
  |  124: Species Si           14.87428962       17.57870587       14.87428958
  |  125: Species Si           17.57870591        9.46545701        9.46545701
  |  126: Species Si           17.57870591       12.16987329       12.16987329
  |  127: Species Si           17.57870591       14.87428958       14.87428958
  |  128: Species Si           17.57870591       17.57870587       17.57870587

  Lattice parameters for 3D lattice (in Angstroms) :    15.298489   15.298489   15.298489
  Angle(s) between unit vectors (in degrees)       :    60.000000   60.000000   60.000000


  Quantities derived from the lattice vectors (in Angstrom^-1):
  | Reciprocal lattice vector 1: -0.290413  0.290413  0.290413
  | Reciprocal lattice vector 2:  0.290413 -0.290413  0.290413
  | Reciprocal lattice vector 3:  0.290413  0.290413 -0.290413
  | Unit cell volume                               :   0.253181E+04  Angstrom^3

  Slab Identifier: This seems to be a bulk system.

  Finished reading input file 'geometry.in'.



  Consistency checks for stacksize environment parameter are next.

  | Maximum stacksize for task 0: 63 [Mb]
  | Maximum stacksize for task 1: 63 [Mb]
  | Maximum stacksize for task 2: 63 [Mb]
  | Maximum stacksize for task 3: 63 [Mb]
  | Maximum stacksize for task 4: 63 [Mb]
  | Maximum stacksize for task 5: 63 [Mb]
  | Maximum stacksize for task 6: 63 [Mb]
  | Maximum stacksize for task 7: 63 [Mb]
   *** Stacksize is not set to unlimited. This might cause problems...
  | Current stacksize for task 0: 63 [Mb]
  | Current stacksize for task 1: 63 [Mb]
  | Current stacksize for task 2: 63 [Mb]
  | Current stacksize for task 3: 63 [Mb]
  | Current stacksize for task 4: 63 [Mb]
  | Current stacksize for task 5: 63 [Mb]
  | Current stacksize for task 6: 63 [Mb]
  | Current stacksize for task 7: 63 [Mb]

  Consistency checks for the contents of control.in are next.

  MPI_IN_PLACE appears to work with this MPI implementation.
  | Keeping use_mpi_in_place .true. (see manual).
  Target number of points in a grid batch is not set. Defaulting to  100
  Method for grid partitioning is not set. Defaulting to parallel hash+maxmin partitioning.
  Batch size limit is not set. Defaulting to    200
  By default, will store active basis functions for each batch.
  If in need of memory, prune_basis_once .false. can be used to disable this option.
  communication_type for Hartree potential was not specified.
  Defaulting to calc_hartree .
  Defaulting to Pulay charge density mixer.
  Pulay mixer: Number of relevant iterations not set.
  Defaulting to    8 iterations.
  Pulay mixer: Number of initial linear mixing iterations not set.
  Defaulting to    0 iterations.
  Work space size for distributed Hartree potential not set.
  Defaulting to   0.200000E+03 MB.
  Mixing parameter for charge density mixing has not been set.
  Using default: charge_mix_param =     0.0500.
  The mixing parameter will be adjusted in iteration number     2 of the first full s.c.f. cycle only.
  Algorithm-dependent basis array size parameters:
  | n_max_pulay                         :        8
  Maximum number of self-consistency iterations not provided.
  Presetting  1000 iterations.
  Presetting      1001 iterations before the initial mixing cycle
  is restarted anyway using the sc_init_iter criterion / keyword.
  Presetting a factor      1.000 between actual scf density residual
  and density convergence criterion sc_accuracy_rho below which sc_init_iter
  takes no effect.
  Geometry relaxation not requested: no relaxation will be performed.
  Forces evaluation will include force correction term due to incomplete self-consistency (default).
  Force calculation: scf convergence accuracy of forces not set.
  Defaulting to 'sc_accuracy_forces not_checked'.
  Handling of forces: Unphysical translation and rotation will be removed from forces.
  No accuracy limit for integral partition fn. given. Defaulting to  0.1000E-14.
  No threshold value for u(r) in integrations given. Defaulting to  0.1000E-05.
  No occupation type (smearing scheme) given. Defaulting to Gaussian broadening, width =  0.1000E-01 eV.
  The width will be adjusted in iteration number     2 of the first full s.c.f. cycle only.
  S.C.F. convergence parameters will be adjusted in iteration number     2 of the first full s.c.f. cycle only.
  No accuracy for occupation numbers given. Defaulting to  0.1000E-12.
  No threshold value for occupation numbers given. Defaulting to  0.0000E+00.
  No accuracy for fermi level given. Defaulting to  0.1000E-19.
  Maximum # of iterations to find E_F not set. Defaulting to  200.
  Preferred method for the eigenvalue solver ('KS_method') not specified in 'control.in'.
  Defaulting to serial version, LAPACK (via ELSI), since more k-points than CPUs available.
  Will not use alltoall communication since running on < 1024 CPUs.
  Threshold for basis singularities not set.
  Default threshold for basis singularities:  0.1000E-04
  partition_type (choice of integration weights) for integrals was not specified.
  | Using a version of the partition function of Stratmann and coworkers ('stratmann_sparse').
  | At each grid point, the set of atoms used to build the partition table is smoothly restricted to
  | only those atoms whose free-atom density would be non-zero at that grid point.
  Partitioning for Hartree potential was not defined. Using partition_type for integrals.
  | Adjusted default value of keyword multip_moments_threshold to:       0.10000000E-11
  | This value may affect high angular momentum components of the Hartree potential in periodic systems.
  Spin handling was not defined in control.in. Defaulting to unpolarized case.
  No q(lm)/r^(l+1) cutoff set for long-range Hartree potential.
  | Using default value of  0.100000E-09 .
  | Verify using the multipole_threshold keyword.
  Defaulting to new monopole extrapolation.
  Density update method: automatic selection selected.
  Using density matrix based charge density update.
  Using density matrix based charge density update.
  Using packed matrix style: index .
  Defaulting to use time-reversal symmetry for k-point grid.
  Charge integration errors on the 3D integration grid will be compensated
  by explicit normalization and distribution of residual charges.
  Use the "compensate_multipole_errors" flag to change this behaviour.
  Set 'collect_eigenvectors' to be '.true.' for all serial calculations. This is mandatory.
  Set 'collect_eigenvectors' to be '.true.' for KS_method lapack_fast and serial.

  Consistency checks for the contents of geometry.in are next.


  Range separation radius for Ewald summation (hartree_convergence_parameter):      3.87147161 bohr.
  Number of empty states per atom not set in control.in - providing a guess from actual geometry.
  | Total number of empty states used during s.c.f. cycle:      384
  If you use a very high smearing, use empty_states (per atom!) in control.in to increase this value.

  Structure-dependent array size parameters: 
  | Maximum number of distinct radial functions  :        9
  | Maximum number of basis functions            :     3200
  | Number of Kohn-Sham states (occupied + empty):     1280
------------------------------------------------------------

************************** W A R N I N G *******************************
* You are using the PIMD wrapper. Specifications and positions         *
* in geometry.in will be IGNORED - all is received from the wrapper.   *
* Please make sure species are declared in the same order in           *
* geometry.in and wrapper input.                                       *
************************************************************************


  Performing system and environment tests:
  | Environment variable OMP_NUM_THREADS correctly set to 1.
  | Checking for ScaLAPACK...
  | Testing pdtran()...
  | All pdtran() tests passed.

------------------------------------------------------------
          Preparing all fixed parts of the calculation.
------------------------------------------------------------
  Determining machine precision:
     2.2250738585072014E-308
  Setting up grids for atomic and cluster calculations.

  Creating wave function, potential, and density for free atoms.
  Runtime choices for atomic solver:
  | atomic solver xc        : PW-LDA
  | compute density gradient: 0
  | compute kinetic density : F

  Species: Si

  List of occupied orbitals and eigenvalues:
    n    l              occ      energy [Ha]    energy [eV]
    1    0           2.0000       -65.491668     -1782.1190
    2    0           2.0000        -5.087967      -138.4506
    3    0           2.0000        -0.391471       -10.6525
    2    1           6.0000        -3.502246       -95.3010
    3    1           2.0000        -0.143943        -3.9169


  Adding cutoff potential to free-atom effective potential.
  Creating fixed part of basis set: Ionic, confined, hydrogenic.

  Si                   ion:

  List of free ionic orbitals and eigenvalues:
    n    l      energy [Ha]    energy [eV]
    1    0       -66.364436     -1805.8682
    2    0        -5.935799      -161.5213
    3    0        -1.078166       -29.3384
    2    1        -4.351123      -118.4001
    3    1        -0.781733       -21.2720


  List of ionic basis orbitals and eigenvalues:
    n    l      energy [Ha]    energy [eV]    outer radius [A]
    3    0        -1.078146       -29.3378       4.214062


  Si                   hydrogenic:

  List of hydrogenic basis orbitals: 
    n    l      effective z      eigenvalue [eV]  inner max. [A]     outer max. [A]     outer radius [A]   
    3    2         4.200000       -26.6624           1.139231           1.139231           4.534782
    2    1         1.400000        -6.4613           1.472672           1.472672           4.590560
    4    3         6.200000       -32.6778           1.368518           1.368518           4.534782

  Creating atomic-like basis functions for current effective potential.

  Species Si                  :

  List of atomic basis orbitals and eigenvalues:
    n    l      energy [Ha]    energy [eV]    outer radius [A]
    1    0       -65.491668     -1782.1190       0.789468
    2    0        -5.087967      -138.4506       2.815114
    3    0        -0.391471       -10.6525       4.534782
    2    1        -3.502246       -95.3010       3.259919
    3    1        -0.143943        -3.9169       4.590560

  Assembling full basis from fixed parts.
  | Species Si :   atomic orbital   1 s accepted.
  | Species Si :   atomic orbital   2 s accepted.
  | Species Si :    ionic orbital   3 s accepted.
  | Species Si :   atomic orbital   3 s accepted.
  | Species Si :   atomic orbital   2 p accepted.
  | Species Si :   atomic orbital   3 p accepted.
  | Species Si :    hydro orbital   2 p accepted.
  | Species Si :    hydro orbital   3 d accepted.
  | Species Si :    hydro orbital   4 f accepted.

  Basis size parameters after reduction:
  | Total number of radial functions:        9
  | Total number of basis functions :     3200

  Per-task memory consumption for arrays in subroutine allocate_ext:
  |           3.171352MB.
  Testing on-site integration grid accuracy.
  |  Species  Function  <phi|h_atom|phi> (log., in eV)  <phi|h_atom|phi> (rad., in eV)
           1        1              -1782.1189727076              -1782.1182429251
           1        2               -138.4506350693               -138.4506310079
           1        3                -10.3030408815                -10.3029120678
           1        4                  5.0238999146                  4.9457540310 ***
           1        5                -95.3009689499                -95.3009689315
           1        6                 -3.9266496564                 -3.9420918374
           1        7                  6.3453628447                  6.1632372158 ***
           1        8                  6.2883050744                  6.2861881409
           1        9                 19.3222464920                 19.3177041052
 * Note: Onsite integrals marked "***" above are less accurate than
 * onsite_accuracy_threshold =    0.03000 eV. Usually, this is harmless.
 * When in doubt, tighten the "radial" and/or "radial_multiplier" flags to check.

  Preparing densities etc. for the partition functions (integrals / Hartree potential).

  Preparations completed.
  max(cpu_time)          :      0.088 s.
  Wall clock time (cpu1) :      0.088 s.
------------------------------------------------------------

  Initializing index lists of integration centers etc. from given atomic structure:
  Mapping all atomic coordinates to central unit cell.

  Initializing the k-points
  Using symmetry for reducing the k-points
  | k-points reduced from:        8 to        8
  | Number of k-points                             :         8
  The eigenvectors in the calculations are REAL.
  | K-points in task   0:         1
  | K-points in task   1:         1
  | K-points in task   2:         1
  | K-points in task   3:         1
  | K-points in task   4:         1
  | K-points in task   5:         1
  | K-points in task   6:         1
  | K-points in task   7:         1
  | Number of basis functions in the Hamiltonian integrals :     14565
  | Number of basis functions in a single unit cell        :      3200
  | Number of centers in hartree potential         :      2858
  | Number of centers in hartree multipole         :      1702
  | Number of centers in electron density summation:      1266
  | Number of centers in basis integrals           :      1368
  | Number of centers in integrals                 :       625
  | Number of centers in hamiltonian               :      1266
  | Consuming          3 KiB for k_phase.
  | Number of super-cells (origin) [n_cells]                     :         125
  | Number of super-cells (after PM_index) [n_cells]             :          28
  | Number of super-cells in hamiltonian [n_cells_in_hamiltonian]:          28
  | Size of matrix packed + index [n_hamiltonian_matrix_size] :     5607541
* Skipping the SCF initialization for now - done inside wrapper      *
  @ DRIVER MODE: Connecting to host:port localhost       10002
  @ DRIVER MODE: Message from server: STATUS      
  @ DRIVER MODE: Message from server: POSDATA     
  @ DRIVER MODE: Received positions 

  Initializing index lists of integration centers etc. from given atomic structure:
  Mapping all atomic coordinates to central unit cell.

  Initializing the k-points
  Using symmetry for reducing the k-points
  | k-points reduced from:        8 to        8
  | Number of k-points                             :         8
  The eigenvectors in the calculations are REAL.
  | K-points in task   0:         1
  | K-points in task   1:         1
  | K-points in task   2:         1
  | K-points in task   3:         1
  | K-points in task   4:         1
  | K-points in task   5:         1
  | K-points in task   6:         1
  | K-points in task   7:         1
  | Number of basis functions in the Hamiltonian integrals :     14565
  | Number of basis functions in a single unit cell        :      3200
  | Number of centers in hartree potential         :      2858
  | Number of centers in hartree multipole         :      1702
  | Number of centers in electron density summation:      1266
  | Number of centers in basis integrals           :      1368
  | Number of centers in integrals                 :       625
  | Number of centers in hamiltonian               :      1266
  | Consuming          3 KiB for k_phase.
  | Number of super-cells (origin) [n_cells]                     :         125
  | Number of super-cells (after PM_index) [n_cells]             :          28
  | Number of super-cells in hamiltonian [n_cells_in_hamiltonian]:          28
  | Size of matrix packed + index [n_hamiltonian_matrix_size] :     5607541

------------------------------------------------------------
          Begin self-consistency loop: Initialization.

          Date     :  20250609, Time     :  185548.369
------------------------------------------------------------
  | Estimated reciprocal-space cutoff momentum G_max:         2.41181531 bohr^-1 .
  | Reciprocal lattice points for long-range Hartree potential:    4014
  Partitioning the integration grid into batches with parallel hashing+maxmin method.
  | Number of batches:     9637
  | Maximal batch size:     125
  | Minimal batch size:      52
  | Average batch size:      74.433
  | Standard deviation of batch sizes:      17.301

  Integration load balanced across     8 MPI tasks.
  Work distribution over tasks is as follows:
  Task     0 has      89620 integration points.
  Task     1 has      89618 integration points.
  Task     2 has      89703 integration points.
  Task     3 has      89677 integration points.
  Task     4 has      89619 integration points.
  Task     5 has      89700 integration points.
  Task     6 has      89699 integration points.
  Task     7 has      89676 integration points.
  Initializing partition tables, free-atom densities, potentials, etc. across the integration grid (initialize_grid_storage).
  | initialize_grid_storage: Actual outermost partition radius vs. multipole_radius_free
  | (-- VB: in principle, multipole_radius_free should be larger, hence this output)
  | Species        1: Confinement radius =              4.999999999999999 AA, multipole_radius_free =              5.000694715736543 AA.
  | Species        1: outer_partition_radius set to              5.000694715736543 AA .
  | The sparse table of interatomic distances needs       2157.41 kbyte instead of     14971.39 kbyte of memory.
  | Net number of integration points:   717312
  | of which are non-zero points    :   622372
  | Numerical average free-atom electrostatic potential    :    -13.30251454 eV
  Renormalizing the initial density to the exact electron count on the 3D integration grid.
  | Initial density: Formal number of electrons (from input files) :    1792.0000000000
  | Integrated number of electrons on 3D grid     :    1792.3329123063
  | Charge integration error                      :       0.3329123063
  | Normalization factor for density and gradient :       0.9998142576
  Renormalizing the free-atom superposition density to the exact electron count on the 3D integration grid.
  | Formal number of electrons (from input files) :    1792.0000000000
  | Integrated number of electrons on 3D grid     :    1792.3329123063
  | Charge integration error                      :       0.3329123063
  | Normalization factor for density and gradient :       0.9998142576
  Obtaining max. number of non-zero basis functions in each batch (get_n_compute_maxes).
  | Maximal number of non-zero basis functions:      708 in task     0
  | Maximal number of non-zero basis functions:      727 in task     1
  | Maximal number of non-zero basis functions:      728 in task     2
  | Maximal number of non-zero basis functions:      733 in task     3
  | Maximal number of non-zero basis functions:      717 in task     4
  | Maximal number of non-zero basis functions:      733 in task     5
  | Maximal number of non-zero basis functions:      745 in task     6
  | Maximal number of non-zero basis functions:      722 in task     7
  Allocating       31.250 MB for KS_eigenvector
  Integrating Hamiltonian matrix: batch-based integration.
  Time summed over all CPUs for integration: real work       24.903 s, elapsed       25.582 s
  Integrating overlap matrix.
  Time summed over all CPUs for integration: real work       19.533 s, elapsed       19.740 s
  Decreasing sparse matrix size:
  | Tolerance:  0.1000E-12
  Hamiltonian matrix
  | Array has  5055289 nonzero elements out of  5607541 elements
  | Sparsity factor is 0.098
  Overlap matrix
  | Array has  4887372 nonzero elements out of  5607541 elements
  | Sparsity factor is 0.128
  New size of hamiltonian matrix:     5062171

  Updating Kohn-Sham eigenvalues and eigenvectors using ELSI and the (modified) LAPACK eigensolver.

  Obtaining occupation numbers and electronic chemical potential using ELSI.
  | Note that, for insulating systems, the printed 'chemical potential' value is not uniquely defined.
  | It can be anywhere in the energy gap, as long as it correctly separates occupied and unoccupied states.
  | In systems with a gap, the physically relevant chemical potential is the VBM or HOMO.

  | Chemical potential (Fermi level):    -5.72128167 eV
  Writing Kohn-Sham eigenvalues.
  K-point:       1 at    0.000000    0.000000    0.000000 (in units of recip. lattice)

  State    Occupation    Eigenvalue [Ha]    Eigenvalue [eV]
      1       2.00000         -65.514197        -1782.73200
      2       2.00000         -65.514038        -1782.72768
      3       2.00000         -65.514035        -1782.72759
      4       2.00000         -65.514035        -1782.72759
      5       2.00000         -65.514035        -1782.72759
      6       2.00000         -65.514035        -1782.72759
      7       2.00000         -65.514035        -1782.72759
      8       2.00000         -65.514035        -1782.72759
      9       2.00000         -65.514035        -1782.72759
     10       2.00000         -65.514035        -1782.72759
     11       2.00000         -65.514035        -1782.72759
     12       2.00000         -65.514035        -1782.72759
     13       2.00000         -65.514035        -1782.72759
     14       2.00000         -65.514035        -1782.72759
     15       2.00000         -65.514035        -1782.72759
     16       2.00000         -65.514035        -1782.72759
     17       2.00000         -65.514035        -1782.72759
     18       2.00000         -65.514035        -1782.72759
     19       2.00000         -65.514035        -1782.72759
     20       2.00000         -65.514035        -1782.72759
     21       2.00000         -65.514035        -1782.72759
     22       2.00000         -65.514035        -1782.72759
     23       2.00000         -65.514035        -1782.72759
     24       2.00000         -65.514035        -1782.72759
     25       2.00000         -65.514035        -1782.72759
     26       2.00000         -65.514035        -1782.72759
     27       2.00000         -65.514035        -1782.72759
     28       2.00000         -65.514035        -1782.72759
     29       2.00000         -65.514035        -1782.72759
     30       2.00000         -65.514035        -1782.72759
     31       2.00000         -65.514035        -1782.72759
     32       2.00000         -65.514035        -1782.72759
     33       2.00000         -65.514035        -1782.72759
     34       2.00000         -65.514035        -1782.72759
     35       2.00000         -65.514035        -1782.72759
     36       2.00000         -65.514035        -1782.72759
     37       2.00000         -65.514035        -1782.72759
     38       2.00000         -65.514035        -1782.72759
     39       2.00000         -65.514035        -1782.72759
     40       2.00000         -65.514035        -1782.72759
     41       2.00000         -65.514035        -1782.72759
     42       2.00000         -65.514035        -1782.72759
     43       2.00000         -65.514035        -1782.72759
     44       2.00000         -65.514035        -1782.72759
     45       2.00000         -65.514035        -1782.72759
     46       2.00000         -65.514035        -1782.72759
     47       2.00000         -65.514035        -1782.72759
     48       2.00000         -65.514035        -1782.72759
     49       2.00000         -65.514035        -1782.72759
     50       2.00000         -65.514035        -1782.72759
     51       2.00000         -65.514035        -1782.72759
     52       2.00000         -65.514035        -1782.72759
     53       2.00000         -65.514035        -1782.72759
     54       2.00000         -65.514035        -1782.72759
     55       2.00000         -65.514035        -1782.72759
     56       2.00000         -65.514035        -1782.72759
     57       2.00000         -65.514035        -1782.72759
     58       2.00000         -65.514035        -1782.72759
     59       2.00000         -65.514035        -1782.72759
     60       2.00000         -65.514035        -1782.72759
     61       2.00000         -65.514035        -1782.72759
     62       2.00000         -65.514035        -1782.72759
     63       2.00000         -65.514035        -1782.72759
     64       2.00000         -65.514035        -1782.72759
     65       2.00000         -65.514035        -1782.72759
     66       2.00000         -65.514035        -1782.72759
     67       2.00000         -65.514035        -1782.72759
     68       2.00000         -65.514035        -1782.72759
     69       2.00000         -65.514035        -1782.72759
     70       2.00000         -65.514035        -1782.72759
     71       2.00000         -65.514035        -1782.72759
     72       2.00000         -65.514035        -1782.72759
     73       2.00000         -65.514035        -1782.72759
     74       2.00000         -65.514035        -1782.72759
     75       2.00000         -65.514035        -1782.72759
     76       2.00000         -65.514035        -1782.72759
     77       2.00000         -65.514035        -1782.72759
     78       2.00000         -65.514035        -1782.72759
     79       2.00000         -65.514035        -1782.72759
     80       2.00000         -65.514035        -1782.72759
     81       2.00000         -65.514035        -1782.72759
     82       2.00000         -65.514035        -1782.72759
     83       2.00000         -65.514035        -1782.72759
     84       2.00000         -65.514035        -1782.72759
     85       2.00000         -65.514035        -1782.72759
     86       2.00000         -65.514035        -1782.72759
     87       2.00000         -65.514035        -1782.72759
     88       2.00000         -65.514035        -1782.72759
     89       2.00000         -65.514035        -1782.72759
     90       2.00000         -65.514035        -1782.72759
     91       2.00000         -65.514035        -1782.72759
     92       2.00000         -65.514035        -1782.72759
     93       2.00000         -65.514035        -1782.72759
     94       2.00000         -65.514035        -1782.72759
     95       2.00000         -65.514035        -1782.72759
     96       2.00000         -65.514035        -1782.72759
     97       2.00000         -65.514035        -1782.72759
     98       2.00000         -65.514035        -1782.72759
     99       2.00000         -65.514035        -1782.72759
    100       2.00000         -65.514035        -1782.72759
    101       2.00000         -65.514035        -1782.72759
    102       2.00000         -65.514035        -1782.72759
    103       2.00000         -65.514035        -1782.72759
    104       2.00000         -65.514035        -1782.72759
    105       2.00000         -65.514035        -1782.72759
    106       2.00000         -65.514035        -1782.72759
    107       2.00000         -65.514035        -1782.72759
    108       2.00000         -65.514035        -1782.72759
    109       2.00000         -65.514035        -1782.72759
    110       2.00000         -65.514035        -1782.72759
    111       2.00000         -65.514035        -1782.72759
    112       2.00000         -65.514035        -1782.72759
    113       2.00000         -65.514035        -1782.72759
    114       2.00000         -65.514035        -1782.72759
    115       2.00000         -65.514035        -1782.72759
    116       2.00000         -65.514035        -1782.72759
    117       2.00000         -65.514035        -1782.72759
    118       2.00000         -65.514035        -1782.72759
    119       2.00000         -65.514035        -1782.72759
    120       2.00000         -65.514035        -1782.72759
    121       2.00000         -65.514035        -1782.72759
    122       2.00000         -65.514035        -1782.72759
    123       2.00000         -65.514035        -1782.72759
    124       2.00000         -65.514035        -1782.72759
    125       2.00000         -65.514035        -1782.72759
    126       2.00000         -65.514034        -1782.72758
    127       2.00000         -65.514034        -1782.72758
    128       2.00000         -65.513877        -1782.72329
    129       2.00000          -5.115613         -139.20292
    130       2.00000          -5.115547         -139.20111
    131       2.00000          -5.115516         -139.20028
    132       2.00000          -5.115516         -139.20028
    133       2.00000          -5.115516         -139.20028
    134       2.00000          -5.115516         -139.20028
    135       2.00000          -5.115516         -139.20028
    136       2.00000          -5.115516         -139.20028
    137       2.00000          -5.115514         -139.20021
    138       2.00000          -5.115510         -139.20010
    139       2.00000          -5.115503         -139.19992
    140       2.00000          -5.115503         -139.19992
    141       2.00000          -5.115503         -139.19992
    142       2.00000          -5.115503         -139.19991
    143       2.00000          -5.115500         -139.19984
    144       2.00000          -5.115492         -139.19961
    145       2.00000          -5.115470         -139.19902
    146       2.00000          -5.115470         -139.19902
    147       2.00000          -5.115470         -139.19901
    148       2.00000          -5.115470         -139.19901
    149       2.00000          -5.115470         -139.19901
    150       2.00000          -5.115470         -139.19901
    151       2.00000          -5.115470         -139.19901
    152       2.00000          -5.115470         -139.19901
    153       2.00000          -5.115470         -139.19901
    154       2.00000          -5.115470         -139.19901
    155       2.00000          -5.115470         -139.19901
    156       2.00000          -5.115470         -139.19901
    157       2.00000          -5.115469         -139.19901
    158       2.00000          -5.115469         -139.19901
    159       2.00000          -5.115463         -139.19884
    160       2.00000          -5.115459         -139.19871
    161       2.00000          -5.115447         -139.19839
    162       2.00000          -5.115446         -139.19838
    163       2.00000          -5.115446         -139.19838
    164       2.00000          -5.115446         -139.19838
    165       2.00000          -5.115446         -139.19838
    166       2.00000          -5.115446         -139.19837
    167       2.00000          -5.115446         -139.19837
    168       2.00000          -5.115446         -139.19837
    169       2.00000          -5.115446         -139.19837
    170       2.00000          -5.115446         -139.19837
    171       2.00000          -5.115446         -139.19837
    172       2.00000          -5.115446         -139.19837
    173       2.00000          -5.115446         -139.19837
    174       2.00000          -5.115446         -139.19837
    175       2.00000          -5.115446         -139.19837
    176       2.00000          -5.115446         -139.19837
    177       2.00000          -5.115446         -139.19837
    178       2.00000          -5.115446         -139.19837
    179       2.00000          -5.115446         -139.19837
    180       2.00000          -5.115446         -139.19837
    181       2.00000          -5.115446         -139.19837
    182       2.00000          -5.115446         -139.19837
    183       2.00000          -5.115425         -139.19781
    184       2.00000          -5.115406         -139.19727
    185       2.00000          -5.115390         -139.19685
    186       2.00000          -5.115390         -139.19684
    187       2.00000          -5.115390         -139.19684
    188       2.00000          -5.115390         -139.19684
    189       2.00000          -5.115390         -139.19683
    190       2.00000          -5.115390         -139.19683
    191       2.00000          -5.115390         -139.19683
    192       2.00000          -5.115390         -139.19683
    193       2.00000          -5.115390         -139.19683
    194       2.00000          -5.115390         -139.19683
    195       2.00000          -5.115390         -139.19683
    196       2.00000          -5.115390         -139.19683
    197       2.00000          -5.115390         -139.19683
    198       2.00000          -5.115390         -139.19683
    199       2.00000          -5.115390         -139.19683
    200       2.00000          -5.115390         -139.19683
    201       2.00000          -5.115374         -139.19640
    202       2.00000          -5.115354         -139.19587
    203       2.00000          -5.115333         -139.19530
    204       2.00000          -5.115333         -139.19530
    205       2.00000          -5.115333         -139.19529
    206       2.00000          -5.115333         -139.19529
    207       2.00000          -5.115333         -139.19529
    208       2.00000          -5.115333         -139.19529
    209       2.00000          -5.115333         -139.19529
    210       2.00000          -5.115333         -139.19529
    211       2.00000          -5.115333         -139.19529
    212       2.00000          -5.115333         -139.19529
    213       2.00000          -5.115333         -139.19529
    214       2.00000          -5.115333         -139.19529
    215       2.00000          -5.115333         -139.19529
    216       2.00000          -5.115333         -139.19529
    217       2.00000          -5.115333         -139.19529
    218       2.00000          -5.115333         -139.19529
    219       2.00000          -5.115333         -139.19529
    220       2.00000          -5.115333         -139.19529
    221       2.00000          -5.115333         -139.19529
    222       2.00000          -5.115333         -139.19529
    223       2.00000          -5.115333         -139.19529
    224       2.00000          -5.115333         -139.19529
    225       2.00000          -5.115321         -139.19496
    226       2.00000          -5.115316         -139.19483
    227       2.00000          -5.115310         -139.19466
    228       2.00000          -5.115310         -139.19466
    229       2.00000          -5.115310         -139.19466
    230       2.00000          -5.115310         -139.19466
    231       2.00000          -5.115310         -139.19466
    232       2.00000          -5.115310         -139.19465
    233       2.00000          -5.115310         -139.19465
    234       2.00000          -5.115310         -139.19465
    235       2.00000          -5.115310         -139.19465
    236       2.00000          -5.115310         -139.19465
    237       2.00000          -5.115310         -139.19465
    238       2.00000          -5.115310         -139.19465
    239       2.00000          -5.115309         -139.19465
    240       2.00000          -5.115309         -139.19465
    241       2.00000          -5.115287         -139.19405
    242       2.00000          -5.115279         -139.19382
    243       2.00000          -5.115276         -139.19375
    244       2.00000          -5.115276         -139.19375
    245       2.00000          -5.115276         -139.19375
    246       2.00000          -5.115276         -139.19375
    247       2.00000          -5.115269         -139.19356
    248       2.00000          -5.115265         -139.19345
    249       2.00000          -5.115263         -139.19338
    250       2.00000          -5.115263         -139.19338
    251       2.00000          -5.115263         -139.19338
    252       2.00000          -5.115263         -139.19338
    253       2.00000          -5.115263         -139.19338
    254       2.00000          -5.115263         -139.19338
    255       2.00000          -5.115231         -139.19253
    256       2.00000          -5.115171         -139.19089
    257       2.00000          -3.530030          -96.05701
    258       2.00000          -3.529983          -96.05571
    259       2.00000          -3.529982          -96.05569
    260       2.00000          -3.529932          -96.05432
    261       2.00000          -3.529931          -96.05432
    262       2.00000          -3.529931          -96.05432
    263       2.00000          -3.529931          -96.05432
    264       2.00000          -3.529931          -96.05431
    265       2.00000          -3.529931          -96.05431
    266       2.00000          -3.529931          -96.05431
    267       2.00000          -3.529931          -96.05431
    268       2.00000          -3.529931          -96.05431
    269       2.00000          -3.529931          -96.05431
    270       2.00000          -3.529931          -96.05431
    271       2.00000          -3.529931          -96.05430
    272       2.00000          -3.529930          -96.05428
    273       2.00000          -3.529929          -96.05427
    274       2.00000          -3.529929          -96.05426
    275       2.00000          -3.529929          -96.05424
    276       2.00000          -3.529928          -96.05424
    277       2.00000          -3.529928          -96.05423
    278       2.00000          -3.529924          -96.05412
    279       2.00000          -3.529924          -96.05411
    280       2.00000          -3.529924          -96.05411
    281       2.00000          -3.529924          -96.05411
    282       2.00000          -3.529924          -96.05411
    283       2.00000          -3.529924          -96.05411
    284       2.00000          -3.529924          -96.05411
    285       2.00000          -3.529924          -96.05411
    286       2.00000          -3.529924          -96.05411
    287       2.00000          -3.529924          -96.05411
    288       2.00000          -3.529924          -96.05411
    289       2.00000          -3.529924          -96.05411
    290       2.00000          -3.529924          -96.05411
    291       2.00000          -3.529924          -96.05411
    292       2.00000          -3.529924          -96.05411
    293       2.00000          -3.529924          -96.05411
    294       2.00000          -3.529924          -96.05411
    295       2.00000          -3.529923          -96.05410
    296       2.00000          -3.529921          -96.05405
    297       2.00000          -3.529921          -96.05404
    298       2.00000          -3.529921          -96.05404
    299       2.00000          -3.529920          -96.05401
    300       2.00000          -3.529920          -96.05401
    301       2.00000          -3.529920          -96.05401
    302       2.00000          -3.529919          -96.05397
    303       2.00000          -3.529918          -96.05397
    304       2.00000          -3.529918          -96.05397
    305       2.00000          -3.529918          -96.05397
    306       2.00000          -3.529918          -96.05397
    307       2.00000          -3.529918          -96.05396
    308       2.00000          -3.529917          -96.05392
    309       2.00000          -3.529915          -96.05388
    310       2.00000          -3.529915          -96.05387
    311       2.00000          -3.529913          -96.05381
    312       2.00000          -3.529912          -96.05379
    313       2.00000          -3.529911          -96.05376
    314       2.00000          -3.529908          -96.05369
    315       2.00000          -3.529907          -96.05367
    316       2.00000          -3.529907          -96.05367
    317       2.00000          -3.529907          -96.05367
    318       2.00000          -3.529907          -96.05367
    319       2.00000          -3.529907          -96.05367
    320       2.00000          -3.529907          -96.05367
    321       2.00000          -3.529907          -96.05367
    322       2.00000          -3.529907          -96.05367
    323       2.00000          -3.529907          -96.05367
    324       2.00000          -3.529907          -96.05367
    325       2.00000          -3.529907          -96.05367
    326       2.00000          -3.529907          -96.05367
    327       2.00000          -3.529907          -96.05367
    328       2.00000          -3.529907          -96.05367
    329       2.00000          -3.529907          -96.05367
    330       2.00000          -3.529907          -96.05367
    331       2.00000          -3.529907          -96.05365
    332       2.00000          -3.529902          -96.05351
    333       2.00000          -3.529900          -96.05346
    334       2.00000          -3.529899          -96.05345
    335       2.00000          -3.529891          -96.05323
    336       2.00000          -3.529891          -96.05323
    337       2.00000          -3.529890          -96.05318
    338       2.00000          -3.529886          -96.05307
    339       2.00000          -3.529885          -96.05307
    340       2.00000          -3.529885          -96.05307
    341       2.00000          -3.529885          -96.05307
    342       2.00000          -3.529885          -96.05307
    343       2.00000          -3.529885          -96.05307
    344       2.00000          -3.529885          -96.05305
    345       2.00000          -3.529884          -96.05304
    346       2.00000          -3.529884          -96.05304
    347       2.00000          -3.529884          -96.05303
    348       2.00000          -3.529884          -96.05302
    349       2.00000          -3.529883          -96.05301
    350       2.00000          -3.529883          -96.05300
    351       2.00000          -3.529882          -96.05298
    352       2.00000          -3.529882          -96.05298
    353       2.00000          -3.529882          -96.05298
    354       2.00000          -3.529882          -96.05298
    355       2.00000          -3.529882          -96.05298
    356       2.00000          -3.529882          -96.05298
    357       2.00000          -3.529882          -96.05298
    358       2.00000          -3.529882          -96.05298
    359       2.00000          -3.529882          -96.05298
    360       2.00000          -3.529882          -96.05298
    361       2.00000          -3.529882          -96.05298
    362       2.00000          -3.529882          -96.05297
    363       2.00000          -3.529881          -96.05296
    364       2.00000          -3.529872          -96.05270
    365       2.00000          -3.529872          -96.05270
    366       2.00000          -3.529869          -96.05262
    367       2.00000          -3.529862          -96.05243
    368       2.00000          -3.529862          -96.05242
    369       2.00000          -3.529861          -96.05240
    370       2.00000          -3.529859          -96.05235
    371       2.00000          -3.529859          -96.05234
    372       2.00000          -3.529859          -96.05234
    373       2.00000          -3.529859          -96.05234
    374       2.00000          -3.529859          -96.05234
    375       2.00000          -3.529859          -96.05234
    376       2.00000          -3.529859          -96.05234
    377       2.00000          -3.529859          -96.05234
    378       2.00000          -3.529859          -96.05234
    379       2.00000          -3.529859          -96.05234
    380       2.00000          -3.529847          -96.05203
    381       2.00000          -3.529847          -96.05202
    382       2.00000          -3.529840          -96.05183
    383       2.00000          -3.529832          -96.05162
    384       2.00000          -3.529831          -96.05159
    385       2.00000          -3.529826          -96.05145
    386       2.00000          -3.529804          -96.05084
    387       2.00000          -3.529803          -96.05082
    388       2.00000          -3.529801          -96.05076
    389       2.00000          -3.529801          -96.05076
    390       2.00000          -3.529801          -96.05076
    391       2.00000          -3.529799          -96.05071
    392       2.00000          -3.529796          -96.05065
    393       2.00000          -3.529791          -96.05050
    394       2.00000          -3.529766          -96.04982
    395       2.00000          -3.529764          -96.04978
    396       2.00000          -3.529763          -96.04974
    397       2.00000          -3.529761          -96.04969
    398       2.00000          -3.529738          -96.04905
    399       2.00000          -3.529738          -96.04905
    400       2.00000          -3.529735          -96.04898
    401       2.00000          -3.529735          -96.04897
    402       2.00000          -3.529733          -96.04891
    403       2.00000          -3.529731          -96.04886
    404       2.00000          -3.529707          -96.04821
    405       2.00000          -3.529706          -96.04820
    406       2.00000          -3.529706          -96.04818
    407       2.00000          -3.529702          -96.04809
    408       2.00000          -3.529702          -96.04808
    409       2.00000          -3.529702          -96.04808
    410       2.00000          -3.529702          -96.04808
    411       2.00000          -3.529702          -96.04808
    412       2.00000          -3.529702          -96.04808
    413       2.00000          -3.529697          -96.04794
    414       2.00000          -3.529697          -96.04794
    415       2.00000          -3.529693          -96.04782
    416       2.00000          -3.529654          -96.04678
    417       2.00000          -3.529654          -96.04677
    418       2.00000          -3.529651          -96.04669
    419       2.00000          -3.529646          -96.04656
    420       2.00000          -3.529646          -96.04655
    421       2.00000          -3.529645          -96.04654
    422       2.00000          -3.529645          -96.04654
    423       2.00000          -3.529645          -96.04654
    424       2.00000          -3.529645          -96.04654
    425       2.00000          -3.529645          -96.04654
    426       2.00000          -3.529645          -96.04654
    427       2.00000          -3.529645          -96.04654
    428       2.00000          -3.529645          -96.04654
    429       2.00000          -3.529645          -96.04654
    430       2.00000          -3.529645          -96.04654
    431       2.00000          -3.529645          -96.04654
    432       2.00000          -3.529645          -96.04654
    433       2.00000          -3.529645          -96.04654
    434       2.00000          -3.529645          -96.04654
    435       2.00000          -3.529645          -96.04653
    436       2.00000          -3.529645          -96.04653
    437       2.00000          -3.529633          -96.04621
    438       2.00000          -3.529633          -96.04621
    439       2.00000          -3.529627          -96.04602
    440       2.00000          -3.529506          -96.04275
    441       2.00000          -3.529504          -96.04269
    442       2.00000          -3.529501          -96.04261
    443       2.00000          -3.529498          -96.04254
    444       2.00000          -3.529498          -96.04253
    445       2.00000          -3.529498          -96.04253
    446       2.00000          -3.529498          -96.04253
    447       2.00000          -3.529498          -96.04253
    448       2.00000          -3.529498          -96.04253
[...]
  |  103          0.414479348983077E-06         -0.952115996525341E-04         -0.956354898593386E-04
  |  104          0.303467072542919E-04         -0.461600957078054E-04         -0.116011120767426E-03
  |  105         -0.300316538571887E-03          0.805056299451437E-04          0.805659271187795E-04
  |  106         -0.143417869424607E-04         -0.803958725138247E-04         -0.803653007297431E-04
  |  107          0.159013796764893E-04         -0.802308725282547E-04         -0.802258511020893E-04
  |  108          0.301463317371051E-03          0.812759513146590E-04          0.813259927249471E-04
  |  109         -0.214708711520779E-03          0.164209587375229E-03          0.154936419652658E-04
  |  110          0.849281513084346E-06         -0.858483322808410E-04         -0.857312310462339E-04
  |  111          0.216268342254725E-03          0.159084071579818E-04          0.164776532295857E-03
  |  112          0.227322354937744E-06         -0.862121634755972E-04         -0.864732567737360E-04
  |  113          0.124485985237280E-03          0.703432626224120E-02          0.686755830408799E-02
  |  114         -0.726239091808405E-04         -0.494812862174914E-03         -0.247527625072958E-03
  |  115          0.144643232581960E-05         -0.505404874281068E-04         -0.516938396963950E-04
  |  116          0.767083317117176E-04         -0.241753636175650E-03         -0.490997329648006E-03
  |  117         -0.530143318441620E-03         -0.370387524697752E-04          0.203020740370532E-03
  |  118         -0.117791165071089E-04         -0.979718123536424E-04         -0.282577864639750E-04
  |  119          0.128876250444514E-04         -0.277186937378002E-04         -0.984467756493651E-04
  |  120          0.530362250815190E-03          0.206761607708481E-03         -0.376946226107110E-04
  |  121         -0.214729056414719E-03          0.154882230921610E-04          0.164232112833032E-03
  |  122          0.106907971202068E-05         -0.857887912787563E-04         -0.858459348571728E-04
  |  123          0.216351532117711E-03          0.164742067072918E-03          0.158821380507847E-04
  |  124          0.260375021804638E-06         -0.865103553348241E-04         -0.862009129455476E-04
  |  125         -0.447628400135013E-03          0.369316932421559E-04          0.369226911522081E-04
  |  126          0.451272171754378E-03          0.378666749526613E-04          0.378733928312576E-04
  |  127         -0.960033060604365E-05         -0.764697762146985E-04         -0.764672096952048E-04
  |  128          0.104289685950338E-04         -0.761929348190709E-04         -0.761749818311434E-04

  Removing unitary transformations (pure translations, rotations) from forces on atoms.
  Atomic forces before filtering:
  | Net force on center of mass :  -0.274812E-16  0.232481E-16 -0.192845E-16 eV/A
  Atomic forces after filtering:
  | Net force on center of mass :   0.797895E-17  0.104208E-16 -0.592909E-16 eV/A
  @ DRIVER - WARNING: the stress tensor will not be computed
 ------------------------------------------------------------------------
 Atomic structure that was used in the preceding time step of the wrapper
                         x [A]             y [A]             z [A]
  lattice_vector         0.00000000       10.81766514       10.81766514
  lattice_vector        10.81766517        0.00000000       10.81766514
  lattice_vector        10.81766517       10.81766514        0.00000000

            atom         0.00000000        0.00707107        0.00707107  Si
            atom         0.00000000        2.70441628        2.70441628  Si
            atom         0.00000000        5.40883257        5.40883257  Si
            atom         0.00000000        8.11324885        8.11324885  Si
            atom         2.70441629        0.00000000        2.70441628  Si
            atom         2.70441629        2.70441628        5.40883257  Si
            atom         2.70441629        5.40883257        8.11324885  Si
            atom         2.70441629        8.11324885       10.81766514  Si
            atom         5.40883258        0.00000000        5.40883257  Si
            atom         5.40883258        2.70441628        8.11324885  Si
            atom         5.40883258        5.40883257       10.81766514  Si
            atom         5.40883258        8.11324885       13.52208142  Si
            atom         8.11324887        0.00000000        8.11324885  Si
            atom         8.11324887        2.70441628       10.81766514  Si
            atom         8.11324887        5.40883257       13.52208142  Si
            atom         8.11324887        8.11324885       16.22649771  Si
            atom         2.70441629        2.70441628        0.00000000  Si
            atom         2.70441629        5.40883257        2.70441628  Si
            atom         2.70441629        8.11324885        5.40883257  Si
            atom         2.70441629       10.81766514        8.11324885  Si
            atom         5.40883258        2.70441628        2.70441628  Si
            atom         5.40883258        5.40883257        5.40883257  Si
            atom         5.40883258        8.11324885        8.11324885  Si
            atom         5.40883258       10.81766514       10.81766514  Si
            atom         8.11324887        2.70441628        5.40883257  Si
            atom         8.11324887        5.40883257        8.11324885  Si
            atom         8.11324887        8.11324885       10.81766514  Si
            atom         8.11324887       10.81766514       13.52208142  Si
            atom        10.81766517        2.70441628        8.11324885  Si
            atom        10.81766517        5.40883257       10.81766514  Si
            atom        10.81766517        8.11324885       13.52208142  Si
            atom        10.81766517       10.81766514       16.22649771  Si
            atom         5.40883258        5.40883257        0.00000000  Si
            atom         5.40883258        8.11324885        2.70441628  Si
            atom         5.40883258       10.81766514        5.40883257  Si
            atom         5.40883258       13.52208142        8.11324885  Si
            atom         8.11324887        5.40883257        2.70441628  Si
            atom         8.11324887        8.11324885        5.40883257  Si
            atom         8.11324887       10.81766514        8.11324885  Si
            atom         8.11324887       13.52208142       10.81766514  Si
            atom        10.81766517        5.40883257        5.40883257  Si
            atom        10.81766517        8.11324885        8.11324885  Si
            atom        10.81766517       10.81766514       10.81766514  Si
            atom        10.81766517       13.52208142       13.52208142  Si
            atom        13.52208146        5.40883257        8.11324885  Si
            atom        13.52208146        8.11324885       10.81766514  Si
            atom        13.52208146       10.81766514       13.52208142  Si
            atom        13.52208146       13.52208142       16.22649771  Si
            atom         8.11324887        8.11324885        0.00000000  Si
            atom         8.11324887       10.81766514        2.70441628  Si
            atom         8.11324887       13.52208142        5.40883257  Si
            atom         8.11324887       16.22649771        8.11324885  Si
            atom        10.81766517        8.11324885        2.70441628  Si
            atom        10.81766517       10.81766514        5.40883257  Si
            atom        10.81766517       13.52208142        8.11324885  Si
            atom        10.81766517       16.22649771       10.81766514  Si
            atom        13.52208146        8.11324885        5.40883257  Si
            atom        13.52208146       10.81766514        8.11324885  Si
            atom        13.52208146       13.52208142       10.81766514  Si
            atom        13.52208146       16.22649771       13.52208142  Si
            atom        16.22649775        8.11324885        8.11324885  Si
            atom        16.22649775       10.81766514       10.81766514  Si
            atom        16.22649775       13.52208142       13.52208142  Si
            atom        16.22649775       16.22649771       16.22649771  Si
            atom         1.35220815        1.35220814        1.35220814  Si
            atom         1.35220815        4.05662443        4.05662443  Si
            atom         1.35220815        6.76104071        6.76104071  Si
            atom         1.35220815        9.46545700        9.46545699  Si
            atom         4.05662444        1.35220814        4.05662443  Si
            atom         4.05662444        4.05662443        6.76104071  Si
            atom         4.05662444        6.76104071        9.46545700  Si
            atom         4.05662444        9.46545700       12.16987328  Si
            atom         6.76104073        1.35220814        6.76104071  Si
            atom         6.76104073        4.05662443        9.46545700  Si
            atom         6.76104073        6.76104071       12.16987328  Si
            atom         6.76104073        9.46545700       14.87428956  Si
            atom         9.46545702        1.35220814        9.46545700  Si
            atom         9.46545702        4.05662443       12.16987328  Si
            atom         9.46545702        6.76104071       14.87428956  Si
            atom         9.46545702        9.46545700       17.57870585  Si
            atom         4.05662444        4.05662443        1.35220814  Si
            atom         4.05662444        6.76104071        4.05662443  Si
            atom         4.05662444        9.46545700        6.76104071  Si
            atom         4.05662444       12.16987328        9.46545700  Si
            atom         6.76104073        4.05662443        4.05662443  Si
            atom         6.76104073        6.76104071        6.76104071  Si
            atom         6.76104073        9.46545700        9.46545700  Si
            atom         6.76104073       12.16987328       12.16987328  Si
            atom         9.46545702        4.05662443        6.76104071  Si
            atom         9.46545702        6.76104071        9.46545700  Si
            atom         9.46545702        9.46545700       12.16987328  Si
            atom         9.46545702       12.16987328       14.87428956  Si
            atom        12.16987331        4.05662443        9.46545700  Si
            atom        12.16987331        6.76104071       12.16987328  Si
            atom        12.16987331        9.46545700       14.87428956  Si
            atom        12.16987331       12.16987328       17.57870585  Si
            atom         6.76104073        6.76104071        1.35220814  Si
            atom         6.76104073        9.46545700        4.05662443  Si
            atom         6.76104073       12.16987328        6.76104071  Si
            atom         6.76104073       14.87428956        9.46545700  Si
            atom         9.46545702        6.76104071        4.05662443  Si
            atom         9.46545702        9.46545700        6.76104071  Si
            atom         9.46545702       12.16987328        9.46545700  Si
            atom         9.46545702       14.87428956       12.16987328  Si
            atom        12.16987331        6.76104071        6.76104071  Si
            atom        12.16987331        9.46545700        9.46545700  Si
            atom        12.16987331       12.16987328       12.16987328  Si
            atom        12.16987331       14.87428956       14.87428956  Si
            atom        14.87428960        6.76104071        9.46545700  Si
            atom        14.87428960        9.46545700       12.16987328  Si
            atom        14.87428960       12.16987328       14.87428956  Si
            atom        14.87428960       14.87428956       17.57870585  Si
            atom         9.46545702        9.46545699        1.35220814  Si
            atom         9.46545702       12.16987328        4.05662443  Si
            atom         9.46545702       14.87428956        6.76104071  Si
            atom         9.46545702       17.57870585        9.46545700  Si
            atom        12.16987331        9.46545700        4.05662443  Si
            atom        12.16987331       12.16987328        6.76104071  Si
            atom        12.16987331       14.87428956        9.46545700  Si
            atom        12.16987331       17.57870585       12.16987328  Si
            atom        14.87428960        9.46545700        6.76104071  Si
            atom        14.87428960       12.16987328        9.46545700  Si
            atom        14.87428960       14.87428956       12.16987328  Si
            atom        14.87428960       17.57870585       14.87428956  Si
            atom        17.57870589        9.46545700        9.46545700  Si
            atom        17.57870589       12.16987328       12.16987328  Si
            atom        17.57870589       14.87428956       14.87428956  Si
            atom        17.57870589       17.57870585       17.57870585  Si
 ------------------------------------------------------------------------
  @ DRIVER MODE: Message from server: STATUS      
  @ DRIVER MODE: Message from server: GETFORCE    
  @ DRIVER MODE: Returning v,forces,stress 

------------------------------------------------------------------------------
  Final output of selected total energy values:

  The following output summarizes some interesting total energy values
  at the end of a run (AFTER all relaxation, molecular dynamics, etc.).

  | Total energy of the DFT / Hartree-Fock s.c.f. calculation      :       -1007890.547709010 eV
  | Final zero-broadening corrected energy (caution - metals only) :       -1007890.547709010 eV
  | For reference only, the value of 1 Hartree used in FHI-aims is :             27.211384500 eV
  | For reference only, the overall average (free atom contribution
  | + realspace contribution) of the electrostatic potential after
  | s.c.f. convergence is                                          :            -12.991750205 eV

  Before relying on these values, please be sure to understand exactly which
  total energy value is referred to by a given number. Different objects may
  all carry the same name 'total energy'. Definitions:

  Total energy of the DFT / Hartree-Fock s.c.f. calculation:
  | Note that this energy does not include ANY quantities calculated after the
  | s.c.f. cycle, in particular not ANY RPA, MP2, etc. many-body perturbation terms.

  Final zero-broadening corrected energy:
  | For metallic systems only, a broadening of the occupation numbers at the Fermi
  | level can be extrapolated back to zero broadening by an electron-gas inspired
  | formula. For all systems that are not real metals, this value can be
  | meaningless and should be avoided.

------------------------------------------------------------------------------
  Methods described in the following list of references were used in this FHI-aims run.
  If you publish the results, please make sure to cite these reference if they apply.
  FHI-aims is an academic code, and for our developers (often, Ph.D. students
  and postdocs), scientific credit in the community is essential.
  Thank you for helping us!

  For any use of FHI-aims, please cite:

    Volker Blum, Ralf Gehrke, Felix Hanke, Paula Havu, Ville Havu,
    Xinguo Ren, Karsten Reuter, and Matthias Scheffler
    'Ab initio molecular simulations with numeric atom-centered orbitals'
    Computer Physics Communications 180, 2175-2196 (2009)
    http://doi.org/10.1016/j.cpc.2009.06.022


  The provided symmetry information was generated with SPGlib:

    Atsushi Togo, Yusuke Seto, Dimitar Pashov
    SPGlib 1.7.3 obtained from http://spglib.sourceforge.net
    Licence: New BSD license
    Copyright (C) 2008 Atsushi Togo


  The ELSI infrastructure was used in your run to solve the Kohn-Sham electronic structure.
  Please check out http://elsi-interchange.org to learn more.
  If scalability is important for your project, please acknowledge ELSI by citing:

    V. W-z. Yu, F. Corsetti, A. Garcia, W. P. Huhn, M. Jacquelin, W. Jia,
    B. Lange, L. Lin, J. Lu, W. Mi, A. Seifitokaldani, A. Vazquez-Mayagoitia,
    C. Yang, H. Yang, and V. Blum
    'ELSI: A unified software interface for Kohn-Sham electronic structure solvers'
    Computer Physics Communications 222, 267-285 (2018).
    http://doi.org/10.1016/j.cpc.2017.09.007


  For the real-space grid partitioning and parallelization used in this calculation, please cite:

    Ville Havu, Volker Blum, Paula Havu, and Matthias Scheffler,
    'Efficient O(N) integration for all-electron electronic structure calculation'
    'using numerically tabulated basis functions'
    Journal of Computational Physics 228, 8367-8379 (2009).
    http://doi.org/10.1016/j.jcp.2009.08.008

  Of course, there are many other important community references, e.g., those cited in the
  above references. Our list is limited to references that describe implementations in the
  FHI-aims code. The reason is purely practical (length of this list) - please credit others as well.

------------------------------------------------------------
          Leaving FHI-aims.
          Date     :  20250609, Time     :  190212.461

          Computational steps:
          | Number of self-consistency cycles          :           14
          | Number of SCF (re)initializations          :            1

          Detailed time accounting                     :  max(cpu_time)    wall_clock(cpu1)
          | Total time                                  :      387.569 s         384.504 s
          | Preparation time                            :        0.088 s           0.088 s
          | Boundary condition initalization            :        0.115 s           0.115 s
          | Grid partitioning                           :        2.081 s           2.099 s
          | Preloading free-atom quantities on grid     :        2.315 s           2.364 s
          | Free-atom superposition energy              :        0.459 s           0.460 s
          | Total time for integrations                 :       48.994 s          50.981 s
          | Total time for solution of K.-S. equations  :      227.974 s         216.398 s
          | Total time for density & force components   :       73.602 s          73.288 s
          | Total time for mixing                       :        0.066 s           0.069 s
          | Total time for Hartree multipole update     :        0.191 s           0.193 s
          | Total time for Hartree multipole sum        :       27.321 s          27.735 s
          | Total time for total energy evaluation      :        0.002 s           0.018 s
          | Total time NSC force correction             :       10.115 s          10.335 s
          | Total time for scaled ZORA corrections      :        0.000 s           0.000 s

          Partial memory accounting:
          | Residual value for overall tracked memory usage across tasks:     0.000000 MB (should be 0.000000 MB)
          | Peak values for overall tracked memory usage:
          |   Minimum:      453.468 MB (on task 1 after allocating eval_tmp)
          |   Maximum:      453.481 MB (on task 2 after allocating eval_tmp)
          |   Average:      453.475 MB
          | Largest tracked array allocation:
          |   Minimum:       78.125 MB (ovlp_work on task 0)
          |   Maximum:       78.125 MB (ovlp_work on task 0)
          |   Average:       78.125 MB
          Note:  These values currently only include a subset of arrays which are explicitly tracked.
          The "true" memory usage will be greater.

          Have a nice day.
------------------------------------------------------------
