------------------------------------------------------------
          Invoking FHI-aims ...

          When using FHI-aims, please cite the following reference:

            Volker Blum, Ralf Gehrke, Felix Hanke, Paula Havu,
            Ville Havu, Xinguo Ren, Karsten Reuter, and Matthias Scheffler,
            'Ab Initio Molecular Simulations with Numeric Atom-Centered Orbitals',
            Computer Physics Communications 180, 2175-2196 (2009)

          In addition, many other developments in FHI-aims are likely important for
          your particular application. If so, please cite them. A partial list of references
          is written at the end of this file. Thank you for giving credit to the authors
          of these developments.

          For general information about FHI-aims please find us at

            https://fhi-aims.org

          Online tutorials can be found at

            https://fhi-aims-club.gitlab.io/tutorials/tutorials-overview/

          For any questions about FHI-aims, please visit our slack channel at

            https://fhi-aims.slack.com

          and our main development and support site at

            https://aims-git.rz-berlin.mpg.de .

          The latter site, in particular, has a wiki to collect information, as well
          as an issue tracker to log discussions, suggest improvements, and report issues
          or bugs. https://aims-git.rz-berlin.mpg.de is also the main development site
          of the project and all new and updated code versions can be obtained there.
          Please send an email to aims-coordinators@fhi-berlin.mpg.de and we will add
          you to these sites. They are for you and everyone is welcome there.

------------------------------------------------------------



  Date     :  20250610, Time     :  150939.434
  Time zero on CPU 1             :   0.921190000000000E-01  s.
  Internal wall clock time zero  :           518800179.434  s.

  FHI-aims created a unique identifier for this run for later identification
  aims_uuid : 26F061A4-2849-4D9B-A24E-42DE075CF359

  Build configuration of the current instance of FHI-aims
  -------------------------------------------------------
  FHI-aims version      : 240206
  Commit number         : 583c55b2e
  CMake host system     : Darwin-23.4.0
  CMake version         : 3.29.1
  Fortran compiler      : /opt/homebrew/bin/mpif90 (GNU) version 13.2.0
  Fortran compiler flags: -O3 -fallow-argument-mismatch -ffree-line-length-none -framework accelerate
  C compiler            : /opt/homebrew/bin/mpicc (AppleClang) version 15.0.0.15000309
  C compiler flags      : -O3 -framework accelerate
  C++ compiler          : /opt/homebrew/bin/mpic++ (AppleClang) version 15.0.0.15000309
  C++ compiler flags    : -O3 -framework accelerate
  HIP compiler          :
  HIP compiler flags    :
  HIP GPU arch          :
  Using MPI
  Using ScaLAPACK
  Using LibXC
  Using i-PI
  Using RLSY
  Linking against: /Users/carbogno/Codes/2023_Scalapack/libscalapack.a

  Using        8 parallel tasks.
  Task        0 on host ThMac05.local reporting.
  Task        1 on host ThMac05.local reporting.
  Task        2 on host ThMac05.local reporting.
  Task        3 on host ThMac05.local reporting.
  Task        4 on host ThMac05.local reporting.
  Task        5 on host ThMac05.local reporting.
  Task        6 on host ThMac05.local reporting.
  Task        7 on host ThMac05.local reporting.

  Memory overcommitment: We could not find /proc/sys/vm/overcommit_memory on your system.

  Obtaining array dimensions for all initial allocations:
  
  -----------------------------------------------------------------------
  Parsing control.in (first pass over file, find array dimensions only).
  The contents of control.in will be repeated verbatim below
  unless switched off by setting 'verbatim_writeout .false.' .
  in the first line of control.in .
  -----------------------------------------------------------------------
  
  #===============================================================================
  # FHI-aims file: ./control.in
  # Created using the Atomic Simulation Environment (ASE)
  # Tue Jun 10 15:09:39 2025
  #===============================================================================
  xc                                 pw-lda
  k_grid                             4 4 4
  sc_accuracy_rho                    1e-06
  relativistic                       atomic_zora scalar
  output_level                       MD_light
  use_pimd_wrapper                   localhost 10005
  #===============================================================================
  
  ################################################################################
  #
  #  FHI-aims code project
  #  VB, Fritz-Haber Institut, 2009
  #
  #  Suggested "light" defaults for Si atom (to be pasted into control.in file)
  #  Be sure to double-check any results obtained with these settings for post-processing,
  #  e.g., with the "tight" defaults and larger basis sets.
  #
  #  2020/09/08 Added f function to "light" after reinspection of Delta test outcomes.
  #             This was done for all of Al-Cl and is a tricky decision since it makes
  #             "light" calculations measurably more expensive for these elements.
  #             Nevertheless, outcomes for P, S, Cl (and to some extent, Si) appear
  #             to justify this choice.
  #
  ################################################################################
    species        Si
  #     global species definitions
      nucleus             14
      mass                28.0855
  #
      l_hartree           4
  #
      cut_pot             3.5          1.5  1.0
      basis_dep_cutoff    1e-4
  #
      radial_base         42 5.0
      radial_multiplier   1
      angular_grids       specified
        division   0.5866   50
        division   0.9616  110
        division   1.2249  194
        division   1.3795  302
  #      division   1.4810  434
  #      division   1.5529  590
  #      division   1.6284  770
  #      division   1.7077  974
  #      division   2.4068 1202
  #      outer_grid   974
        outer_grid 302
  ################################################################################
  #
  #  Definition of "minimal" basis
  #
  ################################################################################
  #     valence basis states
      valence      3  s   2.
      valence      3  p   2.
  #     ion occupancy
      ion_occ      3  s   1.
      ion_occ      3  p   1.
  ################################################################################
  #
  #  Suggested additional basis functions. For production calculations,
  #  uncomment them one after another (the most important basis functions are
  #  listed first).
  #
  #  Constructed for dimers: 1.75 A, 2.0 A, 2.25 A, 2.75 A, 3.75 A
  #
  ################################################################################
  #  "First tier" - improvements: -571.96 meV to -37.03 meV
       hydro 3 d 4.2
       hydro 2 p 1.4
       hydro 4 f 6.2
       ionic 3 s auto
  #  "Second tier" - improvements: -16.76 meV to -3.03 meV
  #     hydro 3 d 9
  #     hydro 5 g 9.4
  #     hydro 4 p 4
  #     hydro 1 s 0.65
  #  "Third tier" - improvements: -3.89 meV to -0.60 meV
  #     ionic 3 d auto
  #     hydro 3 s 2.6
  #     hydro 4 f 8.4
  #     hydro 3 d 3.4
  #     hydro 3 p 7.8
  #  "Fourth tier" - improvements: -0.33 meV to -0.11 meV
  #     hydro 2 p 1.6
  #     hydro 5 g 10.8
  #     hydro 5 f 11.2
  #     hydro 3 d 1
  #     hydro 4 s 4.5
  #  Further basis functions that fell out of the optimization - noise
  #  level... < -0.08 meV
  #     hydro 4 d 6.6
  #     hydro 5 g 16.4
  #     hydro 4 d 9
  
  -----------------------------------------------------------------------
  Completed first pass over input file control.in .
  -----------------------------------------------------------------------
  
  
  -----------------------------------------------------------------------
  Parsing geometry.in (first pass over file, find array dimensions only).
  The contents of geometry.in will be repeated verbatim below
  unless switched off by setting 'verbatim_writeout .false.' .
  in the first line of geometry.in .
  -----------------------------------------------------------------------
  
  #=======================================================
  # FHI-aims file: ./geometry.in
  # Created using the Atomic Simulation Environment (ASE)
  # Tue Jun 10 15:09:39 2025
  #=======================================================
  lattice_vector 5.4088325884509993 0.0000000000639995 0.0000000001369997
  lattice_vector 0.0000000000629998 5.4088325742939993 0.0000000001030003
  lattice_vector 0.0000000001370002 0.0000000001020002 5.4088325742309999
  atom_frac -0.0242969023579847 -0.0076503629643978 -0.0085915448372499 Si
  atom_frac 0.0243851265504803 0.4359116196207023 0.4897600830644723 Si
  atom_frac 0.4976456426389201 -0.0026276684425262 0.4984905328950424 Si
  atom_frac 0.5193147037109691 0.5478021369472887 -0.0011936177329673 Si
  atom_frac 0.2650672904105689 0.2549387304426142 0.2156984775146261 Si
  atom_frac 0.2037294256529116 0.7682062227411772 0.7287286215348102 Si
  atom_frac 0.7558989873829158 0.2534379899141326 0.7860824316536441 Si
  atom_frac 0.7582557260551569 0.7499813318124423 0.2910250159111563 Si
  
  -----------------------------------------------------------------------
  Completed first pass over input file geometry.in .
  -----------------------------------------------------------------------
  

  Basic array size parameters:
  | Number of species                 :        1
  | Number of atoms                   :        8
  | Number of lattice vectors         :        3
  | Max. basis fn. angular momentum   :        3
  | Max. atomic/ionic basis occupied n:        3
  | Max. number of basis fn. types    :        3
  | Max. radial fns per species/type  :        5
  | Max. logarithmic grid size        :     1346
  | Max. radial integration grid size :       42
  | Max. angular integration grid size:      302
  | Max. angular grid division number :        8
  | Radial grid for Hartree potential :     1346
  | Number of spin channels           :        1

------------------------------------------------------------
          Reading file control.in.
------------------------------------------------------------
  XC: Using Perdew-Wang parametrisation of Ceperley-Alder LDA.
  Found k-point grid:         4         4         4
  Convergence accuracy of self-consistent charge density:  0.1000E-05
  Scalar relativistic treatment of kinetic energy: on-site free-atom approximation to ZORA.
  Requested output level: MD_light
  Using external wrapper (i-PI) for performing (path integral) molecular dynamics
  **Attention: initial geometry.in file will be ignored!

  Reading configuration options for species Si                  .
  | Found nuclear charge :  14.0000
  | Found atomic mass :    28.085500000000000      amu
  | Found l_max for Hartree potential  :   4
  | Found cutoff potl. onset [A], width [A], scale factor :    3.50000    1.50000    1.00000
  | Threshold for basis-dependent cutoff potential is   0.100000E-03
  | Found data for basic radial integration grid :    42 points, outermost radius =    5.000 A
  | Found multiplier for basic radial grid :   1
  | Found angular grid specification: user-specified.
  | Specified grid contains     5 separate shells.
  | Check grid settings after all constraints further below.
  | Found free-atom valence shell :  3 s   2.000
  | Found free-atom valence shell :  3 p   2.000
  | Found free-ion valence shell :  3 s   1.000
  | Found free-ion valence shell :  3 p   1.000
  | Found hydrogenic basis function :  3 d   4.200
  | Found hydrogenic basis function :  2 p   1.400
  | Found hydrogenic basis function :  4 f   6.200
  | Found ionic basis function :  3 s , default cutoff radius.
  Species Si                  : Missing cutoff potential type.
  Defaulting to exp(1/x)/(1-x)^2 type cutoff potential.
  Species Si: No 'logarithmic' tag. Using default grid for free atom:
  | Default logarithmic grid data [bohr] : 0.1000E-03 0.1000E+03 0.1012E+01
  | Will include ionic basis functions of  2.0-fold positive Si                   ion.
  Species Si: On-site basis accuracy parameter (for Gram-Schmidt orthonormalisation) not specified.
  Using default value basis_acc =  0.1000000E-03.
  Species Si                  : Using default innermost maximum threshold i_radial=  2 for radial functions.
  Species Si                  : Default cutoff onset for free atom density etc. : 0.35000000E+01 AA.
  Species Si                  : Basic radial grid will be enhanced according to radial_multiplier =   1, to contain    42 grid points.

  Finished reading input file 'control.in'.

------------------------------------------------------------


------------------------------------------------------------
          Reading geometry description geometry.in.
------------------------------------------------------------
  | The smallest distance between any two atoms is         2.15431670 AA.
  | The first atom of this pair is atom number                      1 .
  | The second atom of this pair is atom number                     7 .
  | Wigner-Seitz cell of the first atom image           0     0     0 .
  | (The Wigner-Seitz cell of the second atom is 0 0 0  by definition.)

  Symmetry information by spglib:
  | Precision set to  0.1E-04
  | Number of Operations  : 1
  | Space group           : 1
  | International         : P1
  | Schoenflies           : C1^1
  Input structure read successfully.
  The structure contains        8 atoms,  and a total of        112.000 electrons.

  Input geometry:
  | Unit cell:
  |        5.40883259        0.00000000        0.00000000
  |        0.00000000        5.40883257        0.00000000
  |        0.00000000        0.00000000        5.40883257
  | Atomic structure:
  |       Atom                x [A]            y [A]            z [A]
  |    1: Species Si           -0.13141788       -0.04137953       -0.04647023
  |    2: Species Si            0.13189507        2.35777297        2.64903029
  |    3: Species Si            2.69168197       -0.01421262        2.69625183
  |    4: Species Si            2.80888629        2.96297004       -0.00645608
  |    5: Species Si            1.43370460        1.37892091        1.16667695
  |    6: Species Si            1.10193836        4.15509884        3.94157111
  |    7: Species Si            4.08853108        1.37080366        4.25178826
  |    8: Species Si            4.10127828        4.05652346        1.57410559

  Lattice parameters for 3D lattice (in Angstroms) :     5.408833    5.408833    5.408833
  Angle(s) between unit vectors (in degrees)       :    90.000000   90.000000   90.000000


  Quantities derived from the lattice vectors (in Angstrom^-1):
  | Reciprocal lattice vector 1:  1.161653 -0.000000 -0.000000
  | Reciprocal lattice vector 2: -0.000000  1.161653 -0.000000
  | Reciprocal lattice vector 3: -0.000000 -0.000000  1.161653
  | Unit cell volume                               :   0.158238E+03  Angstrom^3

  Slab Identifier: This seems to be a bulk system.

  Finished reading input file 'geometry.in'.



  Consistency checks for stacksize environment parameter are next.

  | Maximum stacksize for task 0: 63 [Mb]
  | Maximum stacksize for task 1: 63 [Mb]
  | Maximum stacksize for task 2: 63 [Mb]
  | Maximum stacksize for task 3: 63 [Mb]
  | Maximum stacksize for task 4: 63 [Mb]
  | Maximum stacksize for task 5: 63 [Mb]
  | Maximum stacksize for task 6: 63 [Mb]
  | Maximum stacksize for task 7: 63 [Mb]
   *** Stacksize is not set to unlimited. This might cause problems...
  | Current stacksize for task 0: 63 [Mb]
  | Current stacksize for task 1: 63 [Mb]
  | Current stacksize for task 2: 63 [Mb]
  | Current stacksize for task 3: 63 [Mb]
  | Current stacksize for task 4: 63 [Mb]
  | Current stacksize for task 5: 63 [Mb]
  | Current stacksize for task 6: 63 [Mb]
  | Current stacksize for task 7: 63 [Mb]

  Consistency checks for the contents of control.in are next.

  MPI_IN_PLACE appears to work with this MPI implementation.
  | Keeping use_mpi_in_place .true. (see manual).
  Target number of points in a grid batch is not set. Defaulting to  100
  Method for grid partitioning is not set. Defaulting to parallel hash+maxmin partitioning.
  Batch size limit is not set. Defaulting to    200
  By default, will store active basis functions for each batch.
  If in need of memory, prune_basis_once .false. can be used to disable this option.
  communication_type for Hartree potential was not specified.
  Defaulting to calc_hartree .
  Defaulting to Pulay charge density mixer.
  Pulay mixer: Number of relevant iterations not set.
  Defaulting to    8 iterations.
  Pulay mixer: Number of initial linear mixing iterations not set.
  Defaulting to    0 iterations.
  Work space size for distributed Hartree potential not set.
  Defaulting to   0.200000E+03 MB.
  Mixing parameter for charge density mixing has not been set.
  Using default: charge_mix_param =     0.0500.
  The mixing parameter will be adjusted in iteration number     2 of the first full s.c.f. cycle only.
  Algorithm-dependent basis array size parameters:
  | n_max_pulay                         :        8
  Maximum number of self-consistency iterations not provided.
  Presetting  1000 iterations.
  Presetting      1001 iterations before the initial mixing cycle
  is restarted anyway using the sc_init_iter criterion / keyword.
  Presetting a factor      1.000 between actual scf density residual
  and density convergence criterion sc_accuracy_rho below which sc_init_iter
  takes no effect.
  Calculation of forces was not defined in control.in. No forces will be calculated.
  Geometry relaxation not requested: no relaxation will be performed.
  Force calculation: scf convergence accuracy of forces not set.
  Defaulting to 'sc_accuracy_forces not_checked'.
  Handling of forces: Unphysical translation and rotation will be removed from forces.
  No accuracy limit for integral partition fn. given. Defaulting to  0.1000E-14.
  No threshold value for u(r) in integrations given. Defaulting to  0.1000E-05.
  No occupation type (smearing scheme) given. Defaulting to Gaussian broadening, width =  0.1000E-01 eV.
  The width will be adjusted in iteration number     2 of the first full s.c.f. cycle only.
  S.C.F. convergence parameters will be adjusted in iteration number     2 of the first full s.c.f. cycle only.
  No accuracy for occupation numbers given. Defaulting to  0.1000E-12.
  No threshold value for occupation numbers given. Defaulting to  0.0000E+00.
  No accuracy for fermi level given. Defaulting to  0.1000E-19.
  Maximum # of iterations to find E_F not set. Defaulting to  200.
  Preferred method for the eigenvalue solver ('KS_method') not specified in 'control.in'.
  Defaulting to serial version, LAPACK (via ELSI), since more k-points than CPUs available.
  Will not use alltoall communication since running on < 1024 CPUs.
  Threshold for basis singularities not set.
  Default threshold for basis singularities:  0.1000E-04
  partition_type (choice of integration weights) for integrals was not specified.
  | Using a version of the partition function of Stratmann and coworkers ('stratmann_sparse').
  | At each grid point, the set of atoms used to build the partition table is smoothly restricted to
  | only those atoms whose free-atom density would be non-zero at that grid point.
  Partitioning for Hartree potential was not defined. Using partition_type for integrals.
  | Adjusted default value of keyword multip_moments_threshold to:       0.10000000E-11
  | This value may affect high angular momentum components of the Hartree potential in periodic systems.
  Spin handling was not defined in control.in. Defaulting to unpolarized case.
  No q(lm)/r^(l+1) cutoff set for long-range Hartree potential.
  | Using default value of  0.100000E-09 .
  | Verify using the multipole_threshold keyword.
  Defaulting to new monopole extrapolation.
  Density update method: automatic selection selected.
  Using density matrix based charge density update.
  Using density matrix based charge density update.
  Using packed matrix style: index .
  Defaulting to use time-reversal symmetry for k-point grid.
  Charge integration errors on the 3D integration grid will be compensated
  by explicit normalization and distribution of residual charges.
  Use the "compensate_multipole_errors" flag to change this behaviour.
  Set 'collect_eigenvectors' to be '.true.' for all serial calculations. This is mandatory.
  Set 'collect_eigenvectors' to be '.true.' for KS_method lapack_fast and serial.

  Consistency checks for the contents of geometry.in are next.


  Range separation radius for Ewald summation (hartree_convergence_parameter):      3.87147161 bohr.
  Number of empty states per atom not set in control.in - providing a guess from actual geometry.
  | Total number of empty states used during s.c.f. cycle:       24
  If you use a very high smearing, use empty_states (per atom!) in control.in to increase this value.

  Structure-dependent array size parameters: 
  | Maximum number of distinct radial functions  :        9
  | Maximum number of basis functions            :      200
  | Number of Kohn-Sham states (occupied + empty):       80
------------------------------------------------------------

************************** W A R N I N G *******************************
* You are using the PIMD wrapper. Specifications and positions         *
* in geometry.in will be IGNORED - all is received from the wrapper.   *
* Please make sure species are declared in the same order in           *
* geometry.in and wrapper input.                                       *
************************************************************************


  Performing system and environment tests:
  | Environment variable OMP_NUM_THREADS correctly set to 1.
  | Checking for ScaLAPACK...
  | Testing pdtran()...
  | All pdtran() tests passed.

------------------------------------------------------------
          Preparing all fixed parts of the calculation.
------------------------------------------------------------
  Determining machine precision:
     2.2250738585072014E-308
  Setting up grids for atomic and cluster calculations.

  Creating wave function, potential, and density for free atoms.
  Runtime choices for atomic solver:
  | atomic solver xc        : PW-LDA
  | compute density gradient: 0
  | compute kinetic density : F

  Species: Si

  List of occupied orbitals and eigenvalues:
    n    l              occ      energy [Ha]    energy [eV]
    1    0           2.0000       -65.491668     -1782.1190
    2    0           2.0000        -5.087967      -138.4506
    3    0           2.0000        -0.391471       -10.6525
    2    1           6.0000        -3.502246       -95.3010
    3    1           2.0000        -0.143943        -3.9169


  Adding cutoff potential to free-atom effective potential.
  Creating fixed part of basis set: Ionic, confined, hydrogenic.

  Si                   ion:

  List of free ionic orbitals and eigenvalues:
    n    l      energy [Ha]    energy [eV]
    1    0       -66.364436     -1805.8682
    2    0        -5.935799      -161.5213
    3    0        -1.078166       -29.3384
    2    1        -4.351123      -118.4001
    3    1        -0.781733       -21.2720


  List of ionic basis orbitals and eigenvalues:
    n    l      energy [Ha]    energy [eV]    outer radius [A]
    3    0        -1.078146       -29.3378       4.214062


  Si                   hydrogenic:

  List of hydrogenic basis orbitals: 
    n    l      effective z      eigenvalue [eV]  inner max. [A]     outer max. [A]     outer radius [A]   
    3    2         4.200000       -26.6624           1.139231           1.139231           4.534782
    2    1         1.400000        -6.4613           1.472672           1.472672           4.590560
    4    3         6.200000       -32.6778           1.368518           1.368518           4.534782

  Creating atomic-like basis functions for current effective potential.

  Species Si                  :

  List of atomic basis orbitals and eigenvalues:
    n    l      energy [Ha]    energy [eV]    outer radius [A]
    1    0       -65.491668     -1782.1190       0.789468
    2    0        -5.087967      -138.4506       2.815114
    3    0        -0.391471       -10.6525       4.534782
    2    1        -3.502246       -95.3010       3.259919
    3    1        -0.143943        -3.9169       4.590560

  Assembling full basis from fixed parts.
  | Species Si :   atomic orbital   1 s accepted.
  | Species Si :   atomic orbital   2 s accepted.
  | Species Si :    ionic orbital   3 s accepted.
  | Species Si :   atomic orbital   3 s accepted.
  | Species Si :   atomic orbital   2 p accepted.
  | Species Si :   atomic orbital   3 p accepted.
  | Species Si :    hydro orbital   2 p accepted.
  | Species Si :    hydro orbital   3 d accepted.
  | Species Si :    hydro orbital   4 f accepted.

  Basis size parameters after reduction:
  | Total number of radial functions:        9
  | Total number of basis functions :      200

  Per-task memory consumption for arrays in subroutine allocate_ext:
  |           3.106072MB.
  Testing on-site integration grid accuracy.
  |  Species  Function  <phi|h_atom|phi> (log., in eV)  <phi|h_atom|phi> (rad., in eV)
           1        1              -1782.1189727076              -1782.1182429251
           1        2               -138.4506350693               -138.4506310079
           1        3                -10.3030408815                -10.3029120678
           1        4                  5.0238999146                  4.9457540310 ***
           1        5                -95.3009689499                -95.3009689315
           1        6                 -3.9266496564                 -3.9420918374
           1        7                  6.3453628447                  6.1632372158 ***
           1        8                  6.2883050744                  6.2861881409
           1        9                 19.3222464920                 19.3177041052
 * Note: Onsite integrals marked "***" above are less accurate than
 * onsite_accuracy_threshold =    0.03000 eV. Usually, this is harmless.
 * When in doubt, tighten the "radial" and/or "radial_multiplier" flags to check.

  Preparing densities etc. for the partition functions (integrals / Hartree potential).

  Preparations completed.
  max(cpu_time)          :      0.085 s.
  Wall clock time (cpu1) :      0.088 s.
------------------------------------------------------------

  Initializing index lists of integration centers etc. from given atomic structure:
  Mapping all atomic coordinates to central unit cell.

  Initializing the k-points
  Using symmetry for reducing the k-points
  | k-points reduced from:       64 to       36
  | Number of k-points                             :        36
  The eigenvectors in the calculations are COMPLEX.
  | K-points in task   0:         4
  | K-points in task   1:         5
  | K-points in task   2:         5
  | K-points in task   3:         5
  | K-points in task   4:         5
  | K-points in task   5:         4
  | K-points in task   6:         4
  | K-points in task   7:         4
  | Number of basis functions in the Hamiltonian integrals :      3163
  | Number of basis functions in a single unit cell        :       200
  | Number of centers in hartree potential         :      1021
  | Number of centers in hartree multipole         :       502
  | Number of centers in electron density summation:       331
  | Number of centers in basis integrals           :       350
  | Number of centers in integrals                 :       145
  | Number of centers in hamiltonian               :       331
  | Consuming         42 KiB for k_phase.
  | Number of super-cells (origin) [n_cells]                     :         729
  | Number of super-cells (after PM_index) [n_cells]             :          76
  | Number of super-cells in hamiltonian [n_cells_in_hamiltonian]:          76
  | Size of matrix packed + index [n_hamiltonian_matrix_size] :      356311
* Skipping the SCF initialization for now - done inside wrapper      *
  @ DRIVER MODE: Connecting to host:port localhost       10005
  @ DRIVER MODE: Message from server: STATUS      
  @ DRIVER MODE: Message from server: POSDATA     
  @ DRIVER MODE: Received positions 

  Initializing index lists of integration centers etc. from given atomic structure:
  Mapping all atomic coordinates to central unit cell.

  Initializing the k-points
  Using symmetry for reducing the k-points
  | k-points reduced from:       64 to       36
  | Number of k-points                             :        36
  The eigenvectors in the calculations are COMPLEX.
  | K-points in task   0:         4
  | K-points in task   1:         5
  | K-points in task   2:         5
  | K-points in task   3:         5
  | K-points in task   4:         5
  | K-points in task   5:         4
  | K-points in task   6:         4
  | K-points in task   7:         4
  | Number of basis functions in the Hamiltonian integrals :      3163
  | Number of basis functions in a single unit cell        :       200
  | Number of centers in hartree potential         :      1021
  | Number of centers in hartree multipole         :       502
  | Number of centers in electron density summation:       331
  | Number of centers in basis integrals           :       350
  | Number of centers in integrals                 :       145
  | Number of centers in hamiltonian               :       331
  | Consuming         42 KiB for k_phase.
  | Number of super-cells (origin) [n_cells]                     :         729
  | Number of super-cells (after PM_index) [n_cells]             :          76
  | Number of super-cells in hamiltonian [n_cells_in_hamiltonian]:          76
  | Size of matrix packed + index [n_hamiltonian_matrix_size] :      356311

------------------------------------------------------------
          Begin self-consistency loop: Initialization.

          Date     :  20250610, Time     :  150939.617
------------------------------------------------------------
  | Estimated reciprocal-space cutoff momentum G_max:         2.41181531 bohr^-1 .
  | Reciprocal lattice points for long-range Hartree potential:     250
  Partitioning the integration grid into batches with parallel hashing+maxmin method.
  | Number of batches:      553
  | Maximal batch size:     111
  | Minimal batch size:      50
  | Average batch size:      81.071
  | Standard deviation of batch sizes:      18.359

  Integration load balanced across     8 MPI tasks.
  Work distribution over tasks is as follows:
  Task     0 has       5562 integration points.
  Task     1 has       5590 integration points.
  Task     2 has       5589 integration points.
  Task     3 has       5620 integration points.
  Task     4 has       5670 integration points.
  Task     5 has       5660 integration points.
  Task     6 has       5575 integration points.
  Task     7 has       5566 integration points.
  Initializing partition tables, free-atom densities, potentials, etc. across the integration grid (initialize_grid_storage).
  | initialize_grid_storage: Actual outermost partition radius vs. multipole_radius_free
  | (-- VB: in principle, multipole_radius_free should be larger, hence this output)
  | Species        1: Confinement radius =              4.999999999999999 AA, multipole_radius_free =              5.000694715736543 AA.
  | Species        1: outer_partition_radius set to              5.000694715736543 AA .
  | The sparse table of interatomic distances needs        468.11 kbyte instead of       980.00 kbyte of memory.
  | Net number of integration points:    44832
  | of which are non-zero points    :    39010
  | Numerical average free-atom electrostatic potential    :    -13.29975414 eV
  Renormalizing the initial density to the exact electron count on the 3D integration grid.
  | Initial density: Formal number of electrons (from input files) :     112.0000000000
  | Integrated number of electrons on 3D grid     :     111.9995986829
  | Charge integration error                      :      -0.0004013171
  | Normalization factor for density and gradient :       1.0000035832
  Renormalizing the free-atom superposition density to the exact electron count on the 3D integration grid.
  | Formal number of electrons (from input files) :     112.0000000000
  | Integrated number of electrons on 3D grid     :     111.9995986829
  | Charge integration error                      :      -0.0004013171
  | Normalization factor for density and gradient :       1.0000035832
  Obtaining max. number of non-zero basis functions in each batch (get_n_compute_maxes).
  | Maximal number of non-zero basis functions:      697 in task     0
  | Maximal number of non-zero basis functions:      726 in task     1
  | Maximal number of non-zero basis functions:      749 in task     2
  | Maximal number of non-zero basis functions:      706 in task     3
  | Maximal number of non-zero basis functions:      711 in task     4
  | Maximal number of non-zero basis functions:      730 in task     5
  | Maximal number of non-zero basis functions:      702 in task     6
  | Maximal number of non-zero basis functions:      688 in task     7
  Allocating        0.977 MB for KS_eigenvector_complex
  Integrating Hamiltonian matrix: batch-based integration.
  Time summed over all CPUs for integration: real work        1.248 s, elapsed        1.346 s
  Integrating overlap matrix.
  Time summed over all CPUs for integration: real work        0.883 s, elapsed        1.250 s
  Decreasing sparse matrix size:
  | Tolerance:  0.1000E-12
  Hamiltonian matrix
  | Array has   324364 nonzero elements out of   356311 elements
  | Sparsity factor is 0.090
  Overlap matrix
  | Array has   311696 nonzero elements out of   356311 elements
  | Sparsity factor is 0.125
  New size of hamiltonian matrix:      324369

  Updating Kohn-Sham eigenvalues and eigenvectors using ELSI and the (modified) LAPACK eigensolver.

  Obtaining occupation numbers and electronic chemical potential using ELSI.
  | Note that, for insulating systems, the printed 'chemical potential' value is not uniquely defined.
  | It can be anywhere in the energy gap, as long as it correctly separates occupied and unoccupied states.
  | In systems with a gap, the physically relevant chemical potential is the VBM or HOMO.

  | Chemical potential (Fermi level):    -5.86915791 eV
  Writing Kohn-Sham eigenvalues.
  K-point:       1 at    0.000000    0.000000    0.000000 (in units of recip. lattice)

  State    Occupation    Eigenvalue [Ha]    Eigenvalue [eV]
      1       2.00000         -65.519356        -1782.87238
      2       2.00000         -65.516241        -1782.78763
      3       2.00000         -65.514192        -1782.73188
      4       2.00000         -65.513818        -1782.72168
      5       2.00000         -65.513785        -1782.72079
      6       2.00000         -65.512261        -1782.67931
      7       2.00000         -65.512135        -1782.67588
      8       2.00000         -65.510906        -1782.64245
      9       2.00000          -5.121353         -139.35910
     10       2.00000          -5.117683         -139.25924
     11       2.00000          -5.115306         -139.19455
     12       2.00000          -5.114927         -139.18425
     13       2.00000          -5.114732         -139.17893
     14       2.00000          -5.113033         -139.13272
     15       2.00000          -5.112873         -139.12834
     16       2.00000          -5.111436         -139.08924
     17       2.00000          -3.536660          -96.23741
     18       2.00000          -3.535473          -96.20511
     19       2.00000          -3.534350          -96.17455
     20       2.00000          -3.532955          -96.13661
     21       2.00000          -3.531566          -96.09879
     22       2.00000          -3.530846          -96.07920
     23       2.00000          -3.530633          -96.07342
     24       2.00000          -3.530254          -96.06310
     25       2.00000          -3.529391          -96.03963
     26       2.00000          -3.529271          -96.03635
     27       2.00000          -3.528850          -96.02488
     28       2.00000          -3.528668          -96.01993
     29       2.00000          -3.528519          -96.01590
     30       2.00000          -3.528397          -96.01258
     31       2.00000          -3.528052          -96.00317
     32       2.00000          -3.527852          -95.99773
     33       2.00000          -3.527815          -95.99673
     34       2.00000          -3.527078          -95.97668
     35       2.00000          -3.526740          -95.96747
     36       2.00000          -3.526560          -95.96258
     37       2.00000          -3.526116          -95.95050
     38       2.00000          -3.525997          -95.94725
     39       2.00000          -3.525455          -95.93252
     40       2.00000          -3.525050          -95.92148
     41       2.00000          -0.672819          -18.30835
     42       2.00000          -0.544287          -14.81081
     43       2.00000          -0.535121          -14.56139
     44       2.00000          -0.523042          -14.23269
     45       2.00000          -0.505742          -13.76195
     46       2.00000          -0.504986          -13.74138
     47       2.00000          -0.501447          -13.64508
     48       2.00000          -0.341552           -9.29411
     49       2.00000          -0.339989           -9.25156
     50       2.00000          -0.336398           -9.15384
     51       2.00000          -0.329333           -8.96160
     52       2.00000          -0.324021           -8.81706
     53       2.00000          -0.322220           -8.76806
     54       2.00000          -0.259635           -7.06503
     55       2.00000          -0.234683           -6.38604
     56       2.00000          -0.217592           -5.92097
     57       0.00000          -0.211881           -5.76556
     58       0.00000          -0.202831           -5.51932
     59       0.00000          -0.198076           -5.38993
     60       0.00000          -0.192690           -5.24336
     61       0.00000          -0.189076           -5.14502
     62       0.00000          -0.182342           -4.96177
     63       0.00000          -0.133337           -3.62827
     64       0.00000          -0.128909           -3.50780
     65       0.00000          -0.121598           -3.30884
     66       0.00000          -0.116170           -3.16115
     67       0.00000           0.034264            0.93237
     68       0.00000           0.060790            1.65419
     69       0.00000           0.069589            1.89362
     70       0.00000           0.127486            3.46907
     71       0.00000           0.130891            3.56172
     72       0.00000           0.138044            3.75636
     73       0.00000           0.146608            3.98940
     74       0.00000           0.153724            4.18304
     75       0.00000           0.163008            4.43569
     76       0.00000           0.173762            4.72831
     77       0.00000           0.179406            4.88189
     78       0.00000           0.180555            4.91314
     79       0.00000           0.185013            5.03445
     80       0.00000           0.193413            5.26303

  What follows are estimated values for band gap, HOMO, LUMO, etc.
  | They are estimated on a discrete k-point grid and not necessarily exact.
  | For converged numbers, create a DOS and/or band structure plot on a denser k-grid.

  Highest occupied state (VBM) at     -5.92096849 eV (relative to internal zero)
  | Occupation number:      2.00000000
  | K-point:       1 at    0.000000    0.000000    0.000000 (in units of recip. lattice)

  Lowest unoccupied state (CBM) at    -5.76556330 eV (relative to internal zero)
  | Occupation number:      0.00000000
  | K-point:       1 at    0.000000    0.000000    0.000000 (in units of recip. lattice)

  ESTIMATED overall HOMO-LUMO gap:      0.15540519 eV between HOMO at k-point 1 and LUMO at k-point 1
  | This appears to be a direct band gap.
  The gap value is rather small. This may be a metal or a small-gap semiconductor.
  Since we use a finite k-point grid, a DOS and/or band structure plot is required
  for an unambiguous assignment.
  Calculating total energy contributions from superposition of free atom densities.

  Total energy components:
  | Sum of eigenvalues            :       -1312.77416052 Ha      -35722.40244345 eV
  | XC energy correction          :        -158.68968077 Ha       -4318.16591960 eV
  | XC potential correction       :         209.65475102 Ha        5704.99604219 eV
  | Free-atom electrostatic energy:       -1053.13339321 Ha      -28657.21769242 eV
  | Hartree energy correction     :          -0.00000000 Ha          -0.00000000 eV
  | Entropy correction            :          -0.00000000 Ha          -0.00000000 eV
  | ---------------------------
  | Total energy                  :       -2314.94248348 Ha      -62992.79001328 eV
  | Total energy, T -> 0          :       -2314.94248348 Ha      -62992.79001328 eV  <-- do not rely on this value for anything but (periodic) metals
  | Electronic free energy        :       -2314.94248348 Ha      -62992.79001328 eV

  Derived energy quantities:
  | Kinetic energy                :        2318.91783778 Ha       63100.96490778 eV
  | Electrostatic energy          :       -4475.17064049 Ha     -121775.58900146 eV
  | Energy correction for multipole
  | error in Hartree potential    :           0.00000000 Ha           0.00000000 eV
  | Sum of eigenvalues per atom                           :       -4465.30030543 eV
  | Total energy (T->0) per atom                          :       -7874.09875166 eV  <-- do not rely on this value for anything but (periodic) metals
  | Electronic free energy per atom                       :       -7874.09875166 eV
  Initialize hartree_potential_storage
  Max. number of atoms included in rho_multipole:            8

  End scf initialization - timings             :  max(cpu_time)    wall_clock(cpu1)
  | Time for scf. initialization                :        0.592 s           0.606 s
  | Boundary condition initialization           :        0.019 s           0.019 s
  | Integration                                 :        0.326 s           0.330 s
  | Solution of K.-S. eqns.                     :        0.111 s           0.111 s
  | Grid partitioning                           :        0.036 s           0.036 s
  | Preloading free-atom quantities on grid     :        0.093 s           0.094 s
  | Free-atom superposition energy              :        0.029 s           0.029 s
  | Total energy evaluation                     :        0.000 s           0.001 s

  Partial memory accounting:
  | Current value for overall tracked memory usage:
  |   Minimum:        7.208 MB (on task 0)
  |   Maximum:        7.452 MB (on task 1)
  |   Average:        7.330 MB
  | Peak value for overall tracked memory usage:
  |   Minimum:       13.177 MB (on task 7 after allocating wave)
  |   Maximum:       14.245 MB (on task 2 after allocating wave)
  |   Average:       13.641 MB
  | Largest tracked array allocation so far:
  |   Minimum:        3.611 MB (hamiltonian_shell on task 7)
  |   Maximum:        4.280 MB (hamiltonian_shell on task 2)
  |   Average:        3.888 MB
  Note:  These values currently only include a subset of arrays which are explicitly tracked.
  The "true" memory usage will be greater.
------------------------------------------------------------
  Time for density update prior                :  max(cpu_time)    wall_clock(cpu1)
  | self-consistency iterative process          :        0.176 s           0.178 s
------------------------------------------------------------
Convergence:    q app. |  density  | eigen (eV) | Etot (eV) | forces (eV/A) |       CPU time |     Clock time
  SCF    1 :  0.72E-13 |  0.22E+00 |   0.45E+01 |  0.11E+00 |             . |        0.503 s |        0.501 s
  SCF    2 :  0.11E-12 |  0.21E+00 |   0.68E+02 |  0.65E+00 |             . |        0.505 s |        0.516 s
  SCF    3 :  0.58E-13 |  0.38E-01 |  -0.23E+02 |  0.53E-01 |             . |        0.521 s |        0.529 s
  SCF    4 :  0.31E-13 |  0.22E-01 |   0.40E+01 | -0.63E-03 |             . |        0.524 s |        0.523 s
  SCF    5 :  0.16E-12 |  0.13E-01 |  -0.77E+01 |  0.12E-01 |             . |        0.527 s |        0.526 s
  SCF    6 :  0.11E-12 |  0.39E-02 |   0.43E+00 | -0.47E-04 |             . |        0.517 s |        0.521 s
  SCF    7 :  0.15E-12 |  0.41E-02 |  -0.81E+00 |  0.16E-02 |             . |        0.511 s |        0.512 s
  SCF    8 :  0.19E-12 |  0.16E-02 |  -0.22E+00 |  0.17E-03 |             . |        0.503 s |        0.507 s
  SCF    9 :  0.20E-12 |  0.94E-03 |   0.20E+00 |  0.63E-04 |             . |        0.525 s |        0.525 s
  SCF   10 :  0.17E-12 |  0.37E-03 |   0.49E-01 |  0.26E-04 |             . |        0.530 s |        0.556 s
  SCF   11 :  0.72E-13 |  0.54E-04 |  -0.27E-02 |  0.73E-06 |             . |        0.539 s |        0.560 s
  SCF   12 :  0.12E-12 |  0.43E-04 |   0.89E-02 |  0.35E-05 |             . |        0.514 s |        0.515 s
  SCF   13 :  0.18E-12 |  0.13E-04 |   0.18E-02 |  0.22E-05 |             . |        0.536 s |        0.591 s
  SCF   14 :  0.26E-12 |  0.60E-05 |   0.29E-03 |  0.38E-06 |             . |        0.591 s |        0.637 s
  SCF   15 :  0.31E-13 |  0.52E-05 |  -0.31E-03 |  0.25E-06 |             . |        0.514 s |        0.519 s
  SCF   16 :  0.25E-12 |  0.49E-05 |   0.13E-02 | -0.35E-06 |             . |        0.524 s |        0.537 s
  SCF   17 :  0.18E-12 |  0.32E-05 |   0.54E-04 |  0.25E-07 |             . |        0.562 s |        0.596 s
  SCF   18 :  0.15E-12 |  0.31E-05 |  -0.40E-03 |  0.14E-05 |             . |        0.672 s |        0.858 s
  SCF   19 : -0.23E-13 |  0.44E-06 |  -0.85E-05 |  0.39E-08 |             . |        0.616 s |        0.674 s
  SCF   20 :  0.46E-13 |  0.43E-06 |  -0.23E-04 |  0.12E-07 |      0.23E+01 |        2.737 s |        2.764 s

  Total energy components:
  | Sum of eigenvalues            :       -1311.09530774 Ha      -35676.71853510 eV
  | XC energy correction          :        -158.81337009 Ha       -4321.53167738 eV
  | XC potential correction       :         209.81714849 Ha        5709.41510219 eV
  | Free-atom electrostatic energy:       -1053.13339321 Ha      -28657.21769242 eV
  | Hartree energy correction     :          -1.68718503 Ha         -45.91064067 eV
  | Entropy correction            :          -0.00001654 Ha          -0.00045017 eV
  | ---------------------------
  | Total energy                  :       -2314.91210759 Ha      -62991.96344337 eV
  | Total energy, T -> 0          :       -2314.91212413 Ha      -62991.96389354 eV  <-- do not rely on this value for anything but (periodic) metals
  | Electronic free energy        :       -2314.91214068 Ha      -62991.96434371 eV

  Derived energy quantities:
  | Kinetic energy                :        2318.21069670 Ha       63081.72261985 eV
  | Electrostatic energy          :       -4474.30943419 Ha     -121752.15438584 eV
  | Energy correction for multipole
  | error in Hartree potential    :           0.05148383 Ha           1.40094617 eV
  | Sum of eigenvalues per atom                           :       -4459.58981689 eV
  | Total energy (T->0) per atom                          :       -7873.99548669 eV  <-- do not rely on this value for anything but (periodic) metals
  | Electronic free energy per atom                       :       -7873.99554296 eV
  What follows are estimated values for band gap, HOMO, LUMO, etc.
  | They are estimated on a discrete k-point grid and not necessarily exact.
  | For converged numbers, create a DOS and/or band structure plot on a denser k-grid.

  Highest occupied state (VBM) at     -5.66528094 eV (relative to internal zero)
  | Occupation number:      1.46586577
  | K-point:       1 at    0.000000    0.000000    0.000000 (in units of recip. lattice)

  Lowest unoccupied state (CBM) at    -5.62699946 eV (relative to internal zero)
  | Occupation number:      0.64475836
  | K-point:       1 at    0.000000    0.000000    0.000000 (in units of recip. lattice)

  ESTIMATED overall HOMO-LUMO gap:      0.03828147 eV between HOMO at k-point 1 and LUMO at k-point 1
  | This appears to be a direct band gap.
  However, this system has fractional occupation numbers. Since we use a finite k-point grid,
  this material is metallic within the approximate finite broadening function (occupation_type)
  applied to determine the occupation numbers.

  | Chemical Potential                          :    -5.64330026 eV
  | Note that, for insulating systems, the printed 'chemical potential' value is not uniquely defined.
  | It can be anywhere in the energy gap, as long as it correctly separates occupied and unoccupied states.
  | In systems with a gap, the physically relevant chemical potential is the VBM or HOMO.

  Self-consistency cycle converged.

  Removing unitary transformations (pure translations, rotations) from forces on atoms.
  Atomic forces before filtering:
  | Net force on center of mass :  -0.736555E-03 -0.405477E-02 -0.115916E-02 eV/A
  Atomic forces after filtering:
  | Net force on center of mass :   0.713624E-15  0.356812E-15 -0.178406E-15 eV/A

  Energy and forces in a compact form:
  | Total energy uncorrected      :         -0.629919634433737E+05 eV
  | Total energy corrected        :         -0.629919638935431E+05 eV  <-- do not rely on this value for anything but (periodic) metals
  | Electronic free energy        :         -0.629919643437125E+05 eV
  Total atomic forces (unitary forces cleaned) [eV/Ang]:
  |    1          0.106202209586091E+01         -0.532332657270088E+00          0.247151371312646E+01
  |    2         -0.148657695150861E+01          0.211739938909042E+01          0.133689487477621E+01
  |    3         -0.667746135432190E+00          0.137942695391171E+01          0.943400468683902E+00
  |    4         -0.131565130537425E+01         -0.184262484880907E+00         -0.390262234324301E+00
  |    5          0.118254507008938E+01         -0.112004949492947E+01         -0.888844209101413E+00
  |    6          0.189844022480565E+01         -0.160195972199020E+01         -0.464731571894136E+00
  |    7         -0.174724503815844E+01          0.896300027433766E+00         -0.233590682679462E+01
  |    8          0.107421203971755E+01         -0.954522011365239E+00         -0.672064214472104E+00

  Removing unitary transformations (pure translations, rotations) from forces on atoms.
  Atomic forces before filtering:
  | Net force on center of mass :   0.713624E-15  0.356812E-15 -0.178406E-15 eV/A
  Atomic forces after filtering:
  | Net force on center of mass :  -0.356812E-15  0.356812E-15 -0.178406E-15 eV/A
  @ DRIVER - WARNING: the stress tensor will not be computed
 ------------------------------------------------------------------------
 Atomic structure that was used in the preceding time step of the wrapper
                         x [A]             y [A]             z [A]
  lattice_vector         5.40883258        0.00000000        0.00000000
  lattice_vector         0.00000000        5.40883257        0.00000000
  lattice_vector         0.00000000        0.00000000        5.40883257

            atom        -0.13141788       -0.04137953       -0.04647023  Si
            atom         0.13189507        2.35777297        2.64903029  Si
            atom         2.69168197       -0.01421262        2.69625183  Si
            atom         2.80888629        2.96297004       -0.00645608  Si
            atom         1.43370460        1.37892091        1.16667695  Si
            atom         1.10193836        4.15509884        3.94157110  Si
            atom         4.08853107        1.37080365        4.25178826  Si
            atom         4.10127828        4.05652345        1.57410558  Si
 ------------------------------------------------------------------------
  @ DRIVER MODE: Message from server: STATUS      
  @ DRIVER MODE: Message from server: GETFORCE    
  @ DRIVER MODE: Returning v,forces,stress 

------------------------------------------------------------------------------
  Final output of selected total energy values:

  The following output summarizes some interesting total energy values
  at the end of a run (AFTER all relaxation, molecular dynamics, etc.).

  | Total energy of the DFT / Hartree-Fock s.c.f. calculation      :         -62991.963443374 eV
  | Final zero-broadening corrected energy (caution - metals only) :         -62991.963893543 eV
  | For reference only, the value of 1 Hartree used in FHI-aims is :             27.211384500 eV
  | For reference only, the overall average (free atom contribution
  | + realspace contribution) of the electrostatic potential after
  | s.c.f. convergence is                                          :            -13.053698492 eV

  Before relying on these values, please be sure to understand exactly which
  total energy value is referred to by a given number. Different objects may
  all carry the same name 'total energy'. Definitions:

  Total energy of the DFT / Hartree-Fock s.c.f. calculation:
  | Note that this energy does not include ANY quantities calculated after the
  | s.c.f. cycle, in particular not ANY RPA, MP2, etc. many-body perturbation terms.

  Final zero-broadening corrected energy:
  | For metallic systems only, a broadening of the occupation numbers at the Fermi
  | level can be extrapolated back to zero broadening by an electron-gas inspired
  | formula. For all systems that are not real metals, this value can be
  | meaningless and should be avoided.

------------------------------------------------------------------------------
  Methods described in the following list of references were used in this FHI-aims run.
  If you publish the results, please make sure to cite these reference if they apply.
  FHI-aims is an academic code, and for our developers (often, Ph.D. students
  and postdocs), scientific credit in the community is essential.
  Thank you for helping us!

  For any use of FHI-aims, please cite:

    Volker Blum, Ralf Gehrke, Felix Hanke, Paula Havu, Ville Havu,
    Xinguo Ren, Karsten Reuter, and Matthias Scheffler
    'Ab initio molecular simulations with numeric atom-centered orbitals'
    Computer Physics Communications 180, 2175-2196 (2009)
    http://doi.org/10.1016/j.cpc.2009.06.022


  The provided symmetry information was generated with SPGlib:

    Atsushi Togo, Yusuke Seto, Dimitar Pashov
    SPGlib 1.7.3 obtained from http://spglib.sourceforge.net
    Licence: New BSD license
    Copyright (C) 2008 Atsushi Togo


  The ELSI infrastructure was used in your run to solve the Kohn-Sham electronic structure.
  Please check out http://elsi-interchange.org to learn more.
  If scalability is important for your project, please acknowledge ELSI by citing:

    V. W-z. Yu, F. Corsetti, A. Garcia, W. P. Huhn, M. Jacquelin, W. Jia,
    B. Lange, L. Lin, J. Lu, W. Mi, A. Seifitokaldani, A. Vazquez-Mayagoitia,
    C. Yang, H. Yang, and V. Blum
    'ELSI: A unified software interface for Kohn-Sham electronic structure solvers'
    Computer Physics Communications 222, 267-285 (2018).
    http://doi.org/10.1016/j.cpc.2017.09.007


  For the real-space grid partitioning and parallelization used in this calculation, please cite:

    Ville Havu, Volker Blum, Paula Havu, and Matthias Scheffler,
    'Efficient O(N) integration for all-electron electronic structure calculation'
    'using numerically tabulated basis functions'
    Journal of Computational Physics 228, 8367-8379 (2009).
    http://doi.org/10.1016/j.jcp.2009.08.008

  Of course, there are many other important community references, e.g., those cited in the
  above references. Our list is limited to references that describe implementations in the
  FHI-aims code. The reason is purely practical (length of this list) - please credit others as well.

------------------------------------------------------------
          Leaving FHI-aims.
          Date     :  20250610, Time     :  150954.001

          Computational steps:
          | Number of self-consistency cycles          :           20
          | Number of SCF (re)initializations          :            1

          Detailed time accounting                     :  max(cpu_time)    wall_clock(cpu1)
          | Total time                                  :       13.810 s          14.567 s
          | Preparation time                            :        0.085 s           0.088 s
          | Boundary condition initalization            :        0.019 s           0.019 s
          | Grid partitioning                           :        0.036 s           0.036 s
          | Preloading free-atom quantities on grid     :        0.093 s           0.094 s
          | Free-atom superposition energy              :        0.029 s           0.029 s
          | Total time for integrations                 :        4.119 s           4.276 s
          | Total time for solution of K.-S. equations  :        1.609 s           1.637 s
          | Total time for density & force components   :        5.492 s           5.581 s
          | Total time for mixing                       :        0.012 s           0.016 s
          | Total time for Hartree multipole update     :        0.025 s           0.030 s
          | Total time for Hartree multipole sum        :        1.892 s           1.925 s
          | Total time for total energy evaluation      :        0.001 s           0.010 s
          | Total time NSC force correction             :        0.561 s           0.602 s
          | Total time for scaled ZORA corrections      :        0.000 s           0.000 s

          Partial memory accounting:
          | Residual value for overall tracked memory usage across tasks:     0.000000 MB (should be 0.000000 MB)
          | Peak values for overall tracked memory usage:
          |   Minimum:       19.786 MB (on task 7 after allocating d_wave)
          |   Maximum:       21.426 MB (on task 2 after allocating d_wave)
          |   Average:       20.494 MB
          | Largest tracked array allocation:
          |   Minimum:        3.611 MB (hamiltonian_shell on task 7)
          |   Maximum:        4.280 MB (hamiltonian_shell on task 2)
          |   Average:        3.888 MB
          Note:  These values currently only include a subset of arrays which are explicitly tracked.
          The "true" memory usage will be greater.

          Have a nice day.
------------------------------------------------------------
