nqpoint: 200    
npath: 4      
segment_nqpoint:
- 50
- 50
- 50
- 50
labels:
- [ 'G', 'X' ]
- [ 'X', 'U|K' ]
- [ 'U|K', 'G' ]
- [ 'G', 'L' ]
reciprocal_lattice:
- [  -0.18488278,   0.18488278,   0.18488278 ] # a*
- [   0.18488278,  -0.18488278,   0.18488278 ] # b*
- [   0.18488278,   0.18488278,  -0.18488278 ] # c*
natom: 2      
lattice:
- [     0.000000000100000,     2.704416287198000,     2.704416287167000 ] # a
- [     2.704416294294000,     0.000000000083000,     2.704416287184000 ] # b
- [     2.704416294257000,     2.704416287178999,     0.000000000120000 ] # c
points:
- symbol: Si # 1
  coordinates: [  0.000000000008000,  0.000000000005000,  0.000000000019000 ]
  mass: 28.085000
- symbol: Si # 2
  coordinates: [  0.249999999992000,  0.249999999994999,  0.249999999981000 ]
  mass: 28.085000

phonon:
- q-position: [    0.0000000,    0.0000000,    0.0000000 ]
  distance:    0.0000000
  band:
  - # 1
    frequency:    0.0000001117
  - # 2
    frequency:    0.0000002687
  - # 3
    frequency:    0.0000002923
  - # 4
    frequency:   15.4415691509
  - # 5
    frequency:   15.4415691509
  - # 6
    frequency:   15.4415691509

- q-position: [    0.0102041,    0.0000000,    0.0102041 ]
  distance:    0.0037731
  band:
  - # 1
    frequency:    0.1983556926
  - # 2
    frequency:    0.1983556926
  - # 3
    frequency:    0.3164637833
  - # 4
    frequency:   15.4397026922
  - # 5
    frequency:   15.4397026922
  - # 6
    frequency:   15.4409308172

- q-position: [    0.0204082,    0.0000000,    0.0204082 ]
  distance:    0.0075462
  band:
  - # 1
    frequency:    0.3962439430
  - # 2
    frequency:    0.3962439430
  - # 3
    frequency:    0.6327038097
  - # 4
    frequency:   15.4341066918
  - # 5
    frequency:   15.4341066918
  - # 6
    frequency:   15.4390052620

- q-position: [    0.0306122,    0.0000000,    0.0306122 ]
  distance:    0.0113194
  band:
  - # 1
    frequency:    0.5931973377
  - # 2
    frequency:    0.5931973377
  - # 3
    frequency:    0.9484965727
  - # 4
    frequency:   15.4247914071
  - # 5
    frequency:   15.4247914071
  - # 6
    frequency:   15.4357610046

- q-position: [    0.0408163,    0.0000000,    0.0408163 ]
  distance:    0.0150925
  band:
  - # 1
    frequency:    0.7887485411
  - # 2
    frequency:    0.7887485411
  - # 3
    frequency:    1.2636190740
  - # 4
    frequency:   15.4117743630
  - # 5
    frequency:   15.4117743630
  - # 6
    frequency:   15.4311461772

- q-position: [    0.0510204,    0.0000000,    0.0510204 ]
  distance:    0.0188656
  band:
  - # 1
    frequency:    0.9824303865
  - # 2
    frequency:    0.9824303865
  - # 3
    frequency:    1.5778491011
  - # 4
    frequency:   15.3950809826
  - # 5
    frequency:   15.3950809826
  - # 6
    frequency:   15.4250894108

- q-position: [    0.0612245,    0.0000000,    0.0612245 ]
  distance:    0.0226387
  band:
  - # 1
    frequency:    1.1737760314
  - # 2
    frequency:    1.1737760314
  - # 3
    frequency:    1.8909655279
  - # 4
    frequency:   15.3747454459
  - # 5
    frequency:   15.3747454459
  - # 6
    frequency:   15.4175010483

- q-position: [    0.0714286,    0.0000000,    0.0714286 ]
  distance:    0.0264118
  band:
  - # 1
    frequency:    1.3623191988
  - # 2
    frequency:    1.3623191988
  - # 3
    frequency:    2.2027486505
  - # 4
    frequency:   15.3508117502
  - # 5
    frequency:   15.3508117502
  - # 6
    frequency:   15.4082746579

- q-position: [    0.0816327,    0.0000000,    0.0816327 ]
  distance:    0.0301849
  band:
  - # 1
    frequency:    1.5475945293
  - # 2
    frequency:    1.5475945293
  - # 3
    frequency:    2.5129805608
  - # 4
    frequency:   15.3233349410
  - # 5
    frequency:   15.3233349410
  - # 6
    frequency:   15.3972888149

- q-position: [    0.0918367,    0.0000000,    0.0918367 ]
  distance:    0.0339581
  band:
  - # 1
    frequency:    1.7291380697
  - # 2
    frequency:    1.7291380697
  - # 3
    frequency:    2.8214455657
  - # 4
    frequency:   15.2923824748
  - # 5
    frequency:   15.2923824748
  - # 6
    frequency:   15.3844091126

- q-position: [    0.1020408,    0.0000000,    0.1020408 ]
  distance:    0.0377312
  band:
  - # 1
    frequency:    1.9064879263
  - # 2
    frequency:    1.9064879263
  - # 3
    frequency:    3.1279306536
  - # 4
    frequency:   15.2580356684
  - # 5
    frequency:   15.2580356684
  - # 6
    frequency:   15.3694903624

- q-position: [    0.1122449,    0.0000000,    0.1122449 ]
  distance:    0.0415043
  band:
  - # 1
    frequency:    2.0791851132
  - # 2
    frequency:    2.0791851132
  - # 3
    frequency:    3.4322260127
  - # 4
    frequency:   15.2203911849
  - # 5
    frequency:   15.2203911849
  - # 6
    frequency:   15.3523789352

- q-position: [    0.1224490,    0.0000000,    0.1224490 ]
  distance:    0.0452774
  band:
  - # 1
    frequency:    2.2467746275
  - # 2
    frequency:    2.2467746275
  - # 3
    frequency:    3.7341256005
  - # 4
    frequency:   15.1795624979
  - # 5
    frequency:   15.1795624979
  - # 6
    frequency:   15.3329151998

- q-position: [    0.1326531,    0.0000000,    0.1326531 ]
  distance:    0.0490505
  band:
  - # 1
    frequency:    2.4088067889
  - # 2
    frequency:    2.4088067890
  - # 3
    frequency:    4.0334277640
  - # 4
    frequency:   15.1356812748
  - # 5
    frequency:   15.1356812748
  - # 6
    frequency:   15.3109360081

- q-position: [    0.1428571,    0.0000000,    0.1428571 ]
  distance:    0.0528237
  band:
  - # 1
    frequency:    2.5648388795
  - # 2
    frequency:    2.5648388795
  - # 3
    frequency:    4.3299359071
  - # 4
    frequency:   15.0888986105
  - # 5
    frequency:   15.0888986105
  - # 6
    frequency:   15.2862771812

- q-position: [    0.1530612,    0.0000000,    0.1530612 ]
  distance:    0.0565968
  band:
  - # 1
    frequency:    2.7144371250
  - # 2
    frequency:    2.7144371250
  - # 3
    frequency:    4.6234592027
  - # 4
    frequency:   15.0393860459
  - # 5
    frequency:   15.0393860459
  - # 6
    frequency:   15.2587759495

- q-position: [    0.1632653,    0.0000000,    0.1632653 ]
  distance:    0.0603699
  band:
  - # 1
    frequency:    2.8571790592
  - # 2
    frequency:    2.8571790592
  - # 3
    frequency:    4.9138133404
  - # 4
    frequency:   14.9873362978
  - # 5
    frequency:   14.9873362978
  - # 6
    frequency:   15.2282733027

- q-position: [    0.1734694,    0.0000000,    0.1734694 ]
  distance:    0.0641430
  band:
  - # 1
    frequency:    2.9926563116
  - # 2
    frequency:    2.9926563117
  - # 3
    frequency:    5.2008213048
  - # 4
    frequency:   14.9329636321
  - # 5
    frequency:   14.9329636321
  - # 6
    frequency:   15.1946162092

- q-position: [    0.1836735,    0.0000000,    0.1836735 ]
  distance:    0.0679161
  band:
  - # 1
    frequency:    3.1204778594
  - # 2
    frequency:    3.1204778595
  - # 3
    frequency:    5.4843141726
  - # 4
    frequency:   14.8765038113
  - # 5
    frequency:   14.8765038113
  - # 6
    frequency:   15.1576596688

- q-position: [    0.1938776,    0.0000000,    0.1938776 ]
  distance:    0.0716892
  band:
  - # 1
    frequency:    3.2402737770
  - # 2
    frequency:    3.2402737771
  - # 3
    frequency:    5.7641319180
  - # 4
    frequency:   14.8182135559
  - # 5
    frequency:   14.8182135559
  - # 6
    frequency:   15.1172685633

- q-position: [    0.2040816,    0.0000000,    0.2040816 ]
  distance:    0.0754624
  band:
  - # 1
    frequency:    3.3516995121
  - # 2
    frequency:    3.3516995122
  - # 3
    frequency:    6.0401242153
  - # 4
    frequency:   14.7583694648
  - # 5
    frequency:   14.7583694648
  - # 6
    frequency:   15.0733192797

- q-position: [    0.2142857,    0.0000000,    0.2142857 ]
  distance:    0.0792355
  band:
  - # 1
    frequency:    3.4544407026
  - # 2
    frequency:    3.4544407027
  - # 3
    frequency:    6.3121512236
  - # 4
    frequency:   14.6972663589
  - # 5
    frequency:   14.6972663589
  - # 6
    frequency:   15.0257010817

- q-position: [    0.2244898,    0.0000000,    0.2244898 ]
  distance:    0.0830086
  band:
  - # 1
    frequency:    3.5482185337
  - # 2
    frequency:    3.5482185338
  - # 3
    frequency:    6.5800843398
  - # 4
    frequency:   14.6352150236
  - # 5
    frequency:   14.6352150237
  - # 6
    frequency:   14.9743172111

- q-position: [    0.2346939,    0.0000000,    0.2346939 ]
  distance:    0.0867817
  band:
  - # 1
    frequency:    3.6327956138
  - # 2
    frequency:    3.6327956138
  - # 3
    frequency:    6.8438069050
  - # 4
    frequency:   14.5725393551
  - # 5
    frequency:   14.5725393551
  - # 6
    frequency:   14.9190857072

- q-position: [    0.2448980,    0.0000000,    0.2448980 ]
  distance:    0.0905548
  band:
  - # 1
    frequency:    3.7079823187
  - # 2
    frequency:    3.7079823188
  - # 3
    frequency:    7.1032148492
  - # 4
    frequency:   14.5095729367
  - # 5
    frequency:   14.5095729367
  - # 6
    frequency:   14.8599399368

- q-position: [    0.2551020,    0.0000000,    0.2551020 ]
  distance:    0.0943279
  band:
  - # 1
    frequency:    3.7736435276
  - # 2
    frequency:    3.7736435277
  - # 3
    frequency:    7.3582172578
  - # 4
    frequency:   14.4466551081
  - # 5
    frequency:   14.4466551081
  - # 6
    frequency:   14.7968288326

- q-position: [    0.2653061,    0.0000000,    0.2653061 ]
  distance:    0.0981011
  band:
  - # 1
    frequency:    3.8297056345
  - # 2
    frequency:    3.8297056346
  - # 3
    frequency:    7.6087368458
  - # 4
    frequency:   14.3841266179
  - # 5
    frequency:   14.3841266179
  - # 6
    frequency:   14.7297168416

- q-position: [    0.2755102,    0.0000000,    0.2755102 ]
  distance:    0.1018742
  band:
  - # 1
    frequency:    3.8761636871
  - # 2
    frequency:    3.8761636871
  - # 3
    frequency:    7.8547103245
  - # 4
    frequency:   14.3223249857
  - # 5
    frequency:   14.3223249857
  - # 6
    frequency:   14.6585835932

- q-position: [    0.2857143,    0.0000000,    0.2857143 ]
  distance:    0.1056473
  band:
  - # 1
    frequency:    3.9130884660
  - # 2
    frequency:    3.9130884661
  - # 3
    frequency:    8.0960886464
  - # 4
    frequency:   14.2615797297
  - # 5
    frequency:   14.2615797297
  - # 6
    frequency:   14.5834232975

- q-position: [    0.2959184,    0.0000000,    0.2959184 ]
  distance:    0.1094204
  band:
  - # 1
    frequency:    3.9406332854
  - # 2
    frequency:    3.9406332855
  - # 3
    frequency:    8.3328371176
  - # 4
    frequency:   14.2022076357
  - # 5
    frequency:   14.2022076357
  - # 6
    frequency:   14.5042438912

- q-position: [    0.3061224,    0.0000000,    0.3061224 ]
  distance:    0.1131935
  band:
  - # 1
    frequency:    3.9590402648
  - # 2
    frequency:    3.9590402649
  - # 3
    frequency:    8.5649353646
  - # 4
    frequency:   14.1445082620
  - # 5
    frequency:   14.1445082620
  - # 6
    frequency:   14.4210659512

- q-position: [    0.3163265,    0.0000000,    0.3163265 ]
  distance:    0.1169667
  band:
  - # 1
    frequency:    3.9686457980
  - # 2
    frequency:    3.9686457981
  - # 3
    frequency:    8.7923771485
  - # 4
    frequency:   14.0887598730
  - # 5
    frequency:   14.0887598730
  - # 6
    frequency:   14.3339214006

- q-position: [    0.3265306,    0.0000000,    0.3265306 ]
  distance:    0.1207398
  band:
  - # 1
    frequency:    3.9698849291
  - # 2
    frequency:    3.9698849292
  - # 3
    frequency:    9.0151700188
  - # 4
    frequency:   14.0352159838
  - # 5
    frequency:   14.0352159838
  - # 6
    frequency:   14.2428520331

- q-position: [    0.3367347,    0.0000000,    0.3367347 ]
  distance:    0.1245129
  band:
  - # 1
    frequency:    3.9632943285
  - # 2
    frequency:    3.9632943286
  - # 3
    frequency:    9.2333348037
  - # 4
    frequency:   13.9841026713
  - # 5
    frequency:   13.9841026713
  - # 6
    frequency:   14.1479078879

- q-position: [    0.3469388,    0.0000000,    0.3469388 ]
  distance:    0.1282860
  band:
  - # 1
    frequency:    3.9495135543
  - # 2
    frequency:    3.9495135544
  - # 3
    frequency:    9.4469049346
  - # 4
    frequency:   13.9356167683
  - # 5
    frequency:   13.9356167684
  - # 6
    frequency:   14.0491455056

- q-position: [    0.3571429,    0.0000000,    0.3571429 ]
  distance:    0.1320591
  band:
  - # 1
    frequency:    3.9292842714
  - # 2
    frequency:    3.9292842714
  - # 3
    frequency:    9.6559256084
  - # 4
    frequency:   13.8899250094
  - # 5
    frequency:   13.8899250094
  - # 6
    frequency:   13.9466261002

- q-position: [    0.3673469,    0.0000000,    0.3673469 ]
  distance:    0.1358322
  band:
  - # 1
    frequency:    3.9034470867
  - # 2
    frequency:    3.9034470868
  - # 3
    frequency:    9.8604527909
  - # 4
    frequency:   13.8404136827
  - # 5
    frequency:   13.8471641400
  - # 6
    frequency:   13.8471641400

- q-position: [    0.3775510,    0.0000000,    0.3775510 ]
  distance:    0.1396054
  band:
  - # 1
    frequency:    3.8729356424
  - # 2
    frequency:    3.8729356425
  - # 3
    frequency:   10.0605520719
  - # 4
    frequency:   13.7305731720
  - # 5
    frequency:   13.8074419506
  - # 6
    frequency:   13.8074419506

- q-position: [    0.3877551,    0.0000000,    0.3877551 ]
  distance:    0.1433785
  band:
  - # 1
    frequency:    3.8387675884
  - # 2
    frequency:    3.8387675884
  - # 3
    frequency:   10.2562973823
  - # 4
    frequency:   13.6171685294
  - # 5
    frequency:   13.7708391431
  - # 6
    frequency:   13.7708391431

- q-position: [    0.3979592,    0.0000000,    0.3979592 ]
  distance:    0.1471516
  band:
  - # 1
    frequency:    3.8020320525
  - # 2
    frequency:    3.8020320526
  - # 3
    frequency:   10.4477695898
  - # 4
    frequency:   13.5002609520
  - # 5
    frequency:   13.7374118985
  - # 6
    frequency:   13.7374118985

- q-position: [    0.4081633,    0.0000000,    0.4081633 ]
  distance:    0.1509247
  band:
  - # 1
    frequency:    3.7638732439
  - # 2
    frequency:    3.7638732439
  - # 3
    frequency:   10.6350549910
  - # 4
    frequency:   13.3799071593
  - # 5
    frequency:   13.7071949865
  - # 6
    frequency:   13.7071949865

- q-position: [    0.4183673,    0.0000000,    0.4183673 ]
  distance:    0.1546978
  band:
  - # 1
    frequency:    3.7254699001
  - # 2
    frequency:    3.7254699001
  - # 3
    frequency:   10.8182437232
  - # 4
    frequency:   13.2561578060
  - # 5
    frequency:   13.6802052419
  - # 6
    frequency:   13.6802052419

- q-position: [    0.4285714,    0.0000000,    0.4285714 ]
  distance:    0.1584710
  band:
  - # 1
    frequency:    3.6880104494
  - # 2
    frequency:    3.6880104494
  - # 3
    frequency:   10.9974281183
  - # 4
    frequency:   13.1290560491
  - # 5
    frequency:   13.6564452291
  - # 6
    frequency:   13.6564452291

- q-position: [    0.4387755,    0.0000000,    0.4387755 ]
  distance:    0.1622441
  band:
  - # 1
    frequency:    3.6526640261
  - # 2
    frequency:    3.6526640261
  - # 3
    frequency:   11.1727010274
  - # 4
    frequency:   12.9986362981
  - # 5
    frequency:   13.6359069278
  - # 6
    frequency:   13.6359069278

- q-position: [    0.4489796,    0.0000000,    0.4489796 ]
  distance:    0.1660172
  band:
  - # 1
    frequency:    3.6205478778
  - # 2
    frequency:    3.6205478778
  - # 3
    frequency:   11.3441541445
  - # 4
    frequency:   12.8649231692
  - # 5
    frequency:   13.6185752874
  - # 6
    frequency:   13.6185752874

- q-position: [    0.4591837,    0.0000000,    0.4591837 ]
  distance:    0.1697903
  band:
  - # 1
    frequency:    3.5926922175
  - # 2
    frequency:    3.5926922175
  - # 3
    frequency:   11.5118763582
  - # 4
    frequency:   12.7279306635
  - # 5
    frequency:   13.6044315224
  - # 6
    frequency:   13.6044315224

- q-position: [    0.4693878,    0.0000000,    0.4693878 ]
  distance:    0.1735634
  band:
  - # 1
    frequency:    3.5700041510
  - # 2
    frequency:    3.5700041511
  - # 3
    frequency:   11.6759521636
  - # 4
    frequency:   12.5876615828
  - # 5
    frequency:   13.5934560433
  - # 6
    frequency:   13.5934560433

- q-position: [    0.4795918,    0.0000000,    0.4795918 ]
  distance:    0.1773365
  band:
  - # 1
    frequency:    3.5532328556
  - # 2
    frequency:    3.5532328556
  - # 3
    frequency:   11.8364601647
  - # 4
    frequency:   12.4441071924
  - # 5
    frequency:   13.5856309444
  - # 6
    frequency:   13.5856309444

- q-position: [    0.4897959,    0.0000000,    0.4897959 ]
  distance:    0.1811097
  band:
  - # 1
    frequency:    3.5429385665
  - # 2
    frequency:    3.5429385665
  - # 3
    frequency:   11.9934716958
  - # 4
    frequency:   12.2972471346
  - # 5
    frequency:   13.5809419884
  - # 6
    frequency:   13.5809419884

- q-position: [    0.5000000,    0.0000000,    0.5000000 ]
  distance:    0.1848828
  band:
  - # 1
    frequency:    3.5394680055
  - # 2
    frequency:    3.5394680055
  - # 3
    frequency:   12.1470495921
  - # 4
    frequency:   12.1470495921
  - # 5
    frequency:   13.5793800496
  - # 6
    frequency:   13.5793800496

- q-position: [    0.5000000,    0.0000000,    0.5000000 ]
  distance:    0.1848828
  band:
  - # 1
    frequency:    3.5394680055
  - # 2
    frequency:    3.5394680055
  - # 3
    frequency:   12.1470495921
  - # 4
    frequency:   12.1470495921
  - # 5
    frequency:   13.5793800496
  - # 6
    frequency:   13.5793800496

- q-position: [    0.5025510,    0.0051020,    0.5025510 ]
  distance:    0.1862168
  band:
  - # 1
    frequency:    3.5397989345
  - # 2
    frequency:    3.5411567075
  - # 3
    frequency:   12.1460790291
  - # 4
    frequency:   12.1465167960
  - # 5
    frequency:   13.5794675225
  - # 6
    frequency:   13.5800741989

- q-position: [    0.5051020,    0.0102041,    0.5051020 ]
  distance:    0.1875508
  band:
  - # 1
    frequency:    3.5407909771
  - # 2
    frequency:    3.5462164865
  - # 3
    frequency:   12.1431735651
  - # 4
    frequency:   12.1449192454
  - # 5
    frequency:   13.5797299527
  - # 6
    frequency:   13.5821504669

- q-position: [    0.5076531,    0.0153061,    0.5076531 ]
  distance:    0.1888848
  band:
  - # 1
    frequency:    3.5424419019
  - # 2
    frequency:    3.5546284466
  - # 3
    frequency:   12.1383516614
  - # 4
    frequency:   12.1422594547
  - # 5
    frequency:   13.5801673747
  - # 6
    frequency:   13.5855905266

- q-position: [    0.5102041,    0.0204082,    0.5102041 ]
  distance:    0.1902188
  band:
  - # 1
    frequency:    3.5447480003
  - # 2
    frequency:    3.5663613748
  - # 3
    frequency:   12.1316433931
  - # 4
    frequency:   12.1385416184
  - # 5
    frequency:   13.5807798455
  - # 6
    frequency:   13.5903645268

- q-position: [    0.5127551,    0.0255102,    0.5127551 ]
  distance:    0.1915528
  band:
  - # 1
    frequency:    3.5477041007
  - # 2
    frequency:    3.5813721522
  - # 3
    frequency:   12.1230894666
  - # 4
    frequency:   12.1337716174
  - # 5
    frequency:   13.5815674448
  - # 6
    frequency:   13.5964320752

- q-position: [    0.5153061,    0.0306122,    0.5153061 ]
  distance:    0.1928868
  band:
  - # 1
    frequency:    3.5513035891
  - # 2
    frequency:    3.5996063076
  - # 3
    frequency:   12.1127399500
  - # 4
    frequency:   12.1279570274
  - # 5
    frequency:   13.5825302742
  - # 6
    frequency:   13.6037435077

- q-position: [    0.5178571,    0.0357143,    0.5178571 ]
  distance:    0.1942208
  band:
  - # 1
    frequency:    3.5555384349
  - # 2
    frequency:    3.6209986980
  - # 3
    frequency:   12.1006528066
  - # 4
    frequency:   12.1211071300
  - # 5
    frequency:   13.5836684571
  - # 6
    frequency:   13.6122413555

- q-position: [    0.5204082,    0.0408163,    0.5204082 ]
  distance:    0.1955548
  band:
  - # 1
    frequency:    3.5603992220
  - # 2
    frequency:    3.6454742909
  - # 3
    frequency:   12.0868923251
  - # 4
    frequency:   12.1132329263
  - # 5
    frequency:   13.5849821377
  - # 6
    frequency:   13.6218619150

- q-position: [    0.5229592,    0.0459184,    0.5229592 ]
  distance:    0.1968888
  band:
  - # 1
    frequency:    3.5658751852
  - # 2
    frequency:    3.6729490259
  - # 3
    frequency:   12.0715275358
  - # 4
    frequency:   12.1043471528
  - # 5
    frequency:   13.5864714803
  - # 6
    frequency:   13.6325368320

- q-position: [    0.5255102,    0.0510204,    0.5255102 ]
  distance:    0.1982228
  band:
  - # 1
    frequency:    3.5719542505
  - # 2
    frequency:    3.7033307304
  - # 3
    frequency:   12.0546306884
  - # 4
    frequency:   12.0944643006
  - # 5
    frequency:   13.5881366688
  - # 6
    frequency:   13.6441946248

- q-position: [    0.5280612,    0.0561224,    0.5280612 ]
  distance:    0.1995568
  band:
  - # 1
    frequency:    3.5786230809
  - # 2
    frequency:    3.7365200635
  - # 3
    frequency:   12.0362758507
  - # 4
    frequency:   12.0836006369
  - # 5
    frequency:   13.5899779055
  - # 6
    frequency:   13.6567620851

- q-position: [    0.5306122,    0.0612245,    0.5306122 ]
  distance:    0.2008908
  band:
  - # 1
    frequency:    3.5858671248
  - # 2
    frequency:    3.7724114652
  - # 3
    frequency:   12.0165376691
  - # 4
    frequency:   12.0717742290
  - # 5
    frequency:   13.5919954102
  - # 6
    frequency:   13.6701655191

- q-position: [    0.5331633,    0.0663265,    0.5331633 ]
  distance:    0.2022248
  band:
  - # 1
    frequency:    3.5936706687
  - # 2
    frequency:    3.8108940892
  - # 3
    frequency:   11.9954903113
  - # 4
    frequency:   12.0590049722
  - # 5
    frequency:   13.5941894187
  - # 6
    frequency:   13.6843318041

- q-position: [    0.5357143,    0.0714286,    0.5357143 ]
  distance:    0.2035588
  band:
  - # 1
    frequency:    3.6020168932
  - # 2
    frequency:    3.8518527007
  - # 3
    frequency:   11.9732066003
  - # 4
    frequency:   12.0453146198
  - # 5
    frequency:   13.5965601822
  - # 6
    frequency:   13.6991892560

- q-position: [    0.5382653,    0.0765306,    0.5382653 ]
  distance:    0.2048928
  band:
  - # 1
    frequency:    3.6108879308
  - # 2
    frequency:    3.8951685241
  - # 3
    frequency:   11.9497573317
  - # 4
    frequency:   12.0307268163
  - # 5
    frequency:   13.5991079653
  - # 6
    frequency:   13.7146683122

- q-position: [    0.5408163,    0.0816327,    0.5408163 ]
  distance:    0.2062268
  band:
  - # 1
    frequency:    3.6202649265
  - # 2
    frequency:    3.9407200272
  - # 3
    frequency:   11.9252107623
  - # 4
    frequency:   12.0152671340
  - # 5
    frequency:   13.6018330451
  - # 6
    frequency:   13.7307020433

- q-position: [    0.5433673,    0.0867347,    0.5433673 ]
  distance:    0.2075608
  band:
  - # 1
    frequency:    3.6301281005
  - # 2
    frequency:    3.9883836342
  - # 3
    frequency:   11.8996322493
  - # 4
    frequency:   11.9989631130
  - # 5
    frequency:   13.6047357093
  - # 6
    frequency:   13.7472265144

- q-position: [    0.5459184,    0.0918367,    0.5459184 ]
  distance:    0.2088948
  band:
  - # 1
    frequency:    3.6404568113
  - # 2
    frequency:    4.0380343617
  - # 3
    frequency:   11.8730840198
  - # 4
    frequency:   11.9818443039
  - # 5
    frequency:   13.6078162547
  - # 6
    frequency:   13.7641810164

- q-position: [    0.5484694,    0.0969388,    0.5484694 ]
  distance:    0.2102288
  band:
  - # 1
    frequency:    3.6512296207
  - # 2
    frequency:    4.0895463732
  - # 3
    frequency:   11.8456250471
  - # 4
    frequency:   11.9639423141
  - # 5
    frequency:   13.6110749855
  - # 6
    frequency:   13.7815081898

- q-position: [    0.5510204,    0.1020408,    0.5510204 ]
  distance:    0.2115628
  band:
  - # 1
    frequency:    3.6624243587
  - # 2
    frequency:    4.1427934538
  - # 3
    frequency:   11.8173110131
  - # 4
    frequency:   11.9452908579
  - # 5
    frequency:   13.6145122118
  - # 6
    frequency:   13.7991540629

- q-position: [    0.5535714,    0.1071429,    0.5535714 ]
  distance:    0.2128968
  band:
  - # 1
    frequency:    3.6740181889
  - # 2
    frequency:    4.1976494047
  - # 3
    frequency:   11.7881943384
  - # 4
    frequency:   11.9259258094
  - # 5
    frequency:   13.6181282472
  - # 6
    frequency:   13.8170680212

- q-position: [    0.5561224,    0.1122449,    0.5561224 ]
  distance:    0.2142307
  band:
  - # 1
    frequency:    3.6859876735
  - # 2
    frequency:    4.2539883615
  - # 3
    frequency:   11.7583242627
  - # 4
    frequency:   11.9058852586
  - # 5
    frequency:   13.6219234074
  - # 6
    frequency:   13.8352027281

- q-position: [    0.5586735,    0.1173469,    0.5586735 ]
  distance:    0.2155647
  band:
  - # 1
    frequency:    3.6983088378
  - # 2
    frequency:    4.3116850414
  - # 3
    frequency:   11.7277469615
  - # 4
    frequency:   11.8852095715
  - # 5
    frequency:   13.6258980076
  - # 6
    frequency:   13.8535140081

- q-position: [    0.5612245,    0.1224490,    0.5612245 ]
  distance:    0.2168987
  band:
  - # 1
    frequency:    3.7109572340
  - # 2
    frequency:    4.3706149220
  - # 3
    frequency:   11.6965056873
  - # 4
    frequency:   11.8639414526
  - # 5
    frequency:   13.6300523612
  - # 6
    frequency:   13.8719607048

- q-position: [    0.5637755,    0.1275510,    0.5637755 ]
  distance:    0.2182327
  band:
  - # 1
    frequency:    3.7239080038
  - # 2
    frequency:    4.4306543613
  - # 3
    frequency:   11.6646409260
  - # 4
    frequency:   11.8421260101
  - # 5
    frequency:   13.6343867770
  - # 6
    frequency:   13.8905045249

- q-position: [    0.5663265,    0.1326531,    0.5663265 ]
  distance:    0.2195667
  band:
  - # 1
    frequency:    3.7371359390
  - # 2
    frequency:    4.4916806619
  - # 3
    frequency:   11.6321905623
  - # 4
    frequency:   11.8198108239
  - # 5
    frequency:   13.6389015573
  - # 6
    frequency:   13.9091098727

- q-position: [    0.5688776,    0.1377551,    0.5688776 ]
  distance:    0.2209007
  band:
  - # 1
    frequency:    3.7506155418
  - # 2
    frequency:    4.5535720872
  - # 3
    frequency:   11.5991900456
  - # 4
    frequency:   11.7970460159
  - # 5
    frequency:   13.6435969957
  - # 6
    frequency:   13.9277436830

- q-position: [    0.5714286,    0.1428571,    0.5714286 ]
  distance:    0.2222347
  band:
  - # 1
    frequency:    3.7643210821
  - # 2
    frequency:    4.6162078360
  - # 3
    frequency:   11.5656725554
  - # 4
    frequency:   11.7738843204
  - # 5
    frequency:   13.6484733746
  - # 6
    frequency:   13.9463752553

- q-position: [    0.5739796,    0.1479592,    0.5739796 ]
  distance:    0.2235687
  band:
  - # 1
    frequency:    3.7782266534
  - # 2
    frequency:    4.6794679819
  - # 3
    frequency:   11.5316691612
  - # 4
    frequency:   11.7503811568
  - # 5
    frequency:   13.6535309632
  - # 6
    frequency:   13.9649760933

- q-position: [    0.5765306,    0.1530612,    0.5765306 ]
  distance:    0.2249027
  band:
  - # 1
    frequency:    3.7923062265
  - # 2
    frequency:    4.7432333824
  - # 3
    frequency:   11.4972089752
  - # 4
    frequency:   11.7265947005
  - # 5
    frequency:   13.6587700147
  - # 6
    frequency:   13.9835197507

- q-position: [    0.5790816,    0.1581633,    0.5790816 ]
  distance:    0.2262367
  band:
  - # 1
    frequency:    3.8065337010
  - # 2
    frequency:    4.8073855652
  - # 3
    frequency:   11.4623192966
  - # 4
    frequency:   11.7025859529
  - # 5
    frequency:   13.6641907643
  - # 6
    frequency:   14.0019816858

- q-position: [    0.5816327,    0.1632653,    0.5816327 ]
  distance:    0.2275707
  band:
  - # 1
    frequency:    3.8208829544
  - # 2
    frequency:    4.8718065971
  - # 3
    frequency:   11.4270257468
  - # 4
    frequency:   11.6784188079
  - # 5
    frequency:   13.6697934264
  - # 6
    frequency:   14.0203391249

- q-position: [    0.5841837,    0.1683673,    0.5841837 ]
  distance:    0.2289047
  band:
  - # 1
    frequency:    3.8353278894
  - # 2
    frequency:    4.9363789401
  - # 3
    frequency:   11.3913523942
  - # 4
    frequency:   11.6541601140
  - # 5
    frequency:   13.6755781924
  - # 6
    frequency:   14.0385709351

- q-position: [    0.5867347,    0.1734694,    0.5867347 ]
  distance:    0.2302387
  band:
  - # 1
    frequency:    3.8498424776
  - # 2
    frequency:    5.0009853018
  - # 3
    frequency:   11.3553218702
  - # 4
    frequency:   11.6298797287
  - # 5
    frequency:   13.6815452280
  - # 6
    frequency:   14.0566575073

- q-position: [    0.5892857,    0.1785714,    0.5892857 ]
  distance:    0.2315727
  band:
  - # 1
    frequency:    3.8644008023
  - # 2
    frequency:    5.0655084849
  - # 3
    frequency:   11.3189554746
  - # 4
    frequency:   11.6056505634
  - # 5
    frequency:   13.6876946711
  - # 6
    frequency:   14.0745806473

- q-position: [    0.5918367,    0.1836735,    0.5918367 ]
  distance:    0.2329067
  band:
  - # 1
    frequency:    3.8789770981
  - # 2
    frequency:    5.1298312408
  - # 3
    frequency:   11.2822732718
  - # 4
    frequency:   11.5815486161
  - # 5
    frequency:   13.6940266287
  - # 6
    frequency:   14.0923234778

- q-position: [    0.5943878,    0.1887755,    0.5943878 ]
  distance:    0.2342407
  band:
  - # 1
    frequency:    3.8935457877
  - # 2
    frequency:    5.1938361344
  - # 3
    frequency:   11.2452941788
  - # 4
    frequency:   11.5576529874
  - # 5
    frequency:   13.7005411747
  - # 6
    frequency:   14.1098703474

- q-position: [    0.5969388,    0.1938776,    0.5969388 ]
  distance:    0.2355747
  band:
  - # 1
    frequency:    3.9080815174
  - # 2
    frequency:    5.2574054248
  - # 3
    frequency:   11.2080360436
  - # 4
    frequency:   11.5340458766
  - # 5
    frequency:   13.7072383477
  - # 6
    frequency:   14.1272067488

- q-position: [    0.5994898,    0.1989796,    0.5994898 ]