   2   54
1 1
    13.541817497527468     0.000000000000000     0.000000000000002
    -0.000000000000000    13.541817497527470    -0.000000000000000
    -0.000000000000000     0.000000000000002    13.541817497527477
1 2
     0.524633230702580     0.072264563953271     0.072264563959026
    -0.077939202894710    -0.180466245482664    -0.217294753178261
    -0.077939202902306    -0.217294753183260    -0.180466245484785
1 3
     0.524633230691443    -0.072264563925577    -0.072264563918165
     0.077939202867277    -0.180466245479136    -0.217294753172629
     0.077939202861525    -0.217294753177754    -0.180466245477176
1 4
    -0.180466245482703    -0.077939202484950    -0.217294752609040
     0.072264564330531     0.524633230701621     0.072264564144152
    -0.217294753751522    -0.077939202693282    -0.180466245483787
1 5
    -0.034499783234867     0.044703509439519    -0.044703509437329
     0.044703509672961    -0.034499783234843    -0.044703509554062
    -0.044703509675127    -0.044703509558418    -0.034499783234867
1 6
    -0.180466245477176     0.217294752608871     0.077939202460777
     0.217294753746122    -0.180466245483746    -0.077939202686404
    -0.072264564302588     0.072264564134985     0.524633230696053
1 7
    -0.180466245479178     0.077939202460069    -0.217294752604362
    -0.072264564305829     0.524633230692401    -0.072264564112236
    -0.217294753746981     0.077939202661547    -0.180466245478093
1 8
    -0.180466245484785     0.217294752609592    -0.077939202488220
     0.217294753747318    -0.180466245478054     0.077939202670557
     0.072264564330111    -0.072264564119399     0.524633230697970
1 9
    -0.034505540824506     0.045043211217643    -0.045043211215436
     0.045043211452859    -0.034505540824481    -0.045043211333057
    -0.045043211455041    -0.045043211337445    -0.034505540824506
1 10
    -0.180466245484705    -0.217294752612532    -0.077939202494651
    -0.217294753750070    -0.180466245483826    -0.077939202695596
     0.072264564339990     0.072264564147703     0.524633230703662
1 11
    -0.034499783234851    -0.044703509437254     0.044703509438386
    -0.044703509675226    -0.034499783234859    -0.044703509557368
     0.044703509674085    -0.044703509555095    -0.034499783234867
1 12
    -0.180466245479177     0.077939202472213     0.217294752607330
    -0.072264564310444     0.524633230698095     0.072264564135429
     0.217294753749706    -0.077939202692088    -0.180466245483787
1 13
    -0.034499783234851    -0.044703509441205    -0.044703509440089
    -0.044703509671259    -0.034499783234876     0.044703509555104
    -0.044703509672399     0.044703509557360    -0.034499783234851
1 14
    -0.034499783234867     0.044703509438940     0.044703509439031
     0.044703509673523    -0.034499783234859     0.044703509556327
     0.044703509673441     0.044703509556153    -0.034499783234851
1 15
    -0.031781878148128     0.000000000000085     0.000000000000187
    -0.000000000000083    -0.039218127541654     0.000126689762540
    -0.000000000000187     0.000126689762543    -0.039218127541654
1 16
     0.524633230699052    -0.072264563933859     0.072264563951132
     0.077939202881253    -0.180466245479217     0.217294753176577
    -0.077939202900184     0.217294753181415    -0.180466245484705
1 17
    -0.039218127541654    -0.000000000000086     0.000126689762209
     0.000000000000084    -0.031781878148128     0.000000000000140
     0.000126689762875    -0.000000000000139    -0.039218127541654
1 18
    -0.039218127541654    -0.000126689762210    -0.000000000000191
    -0.000126689762873    -0.039218127541654    -0.000000000000145
     0.000000000000191     0.000000000000143    -0.031781878148128
1 19
    -0.180466245477096    -0.217294752605932     0.077939202450657
    -0.217294753743370    -0.180466245478134     0.077939202657734
    -0.072264564296076    -0.072264564110101     0.524633230690361
1 20
    -0.180466245482703    -0.077939202480703     0.217294752606072
     0.072264564318594     0.524633230695927    -0.072264564113637
     0.217294753748796     0.077939202670637    -0.180466245478093
1 21
    -0.034505540824490    -0.045043211215361     0.045043211216502
    -0.045043211455141    -0.034505540824498    -0.045043211336388
     0.045043211453992    -0.045043211334098    -0.034505540824506
1 22
     0.524633230694971     0.072264563939538    -0.072264563920555
    -0.077939202886671    -0.180466245482744     0.217294753174313
     0.077939202869527     0.217294753179599    -0.180466245477096
1 23
    -0.039218127541654     0.000126689762210    -0.000000000000186
     0.000126689762873    -0.039218127541654    -0.000000000000138
     0.000000000000186     0.000000000000137    -0.031781878148128
1 24
    -0.039218127541654    -0.000000000000090    -0.000126689762209
     0.000000000000089    -0.031781878148128     0.000000000000143
    -0.000126689762875    -0.000000000000142    -0.039218127541654
1 25
    -0.034505540824490    -0.045043211219342    -0.045043211218217
    -0.045043211451144    -0.034505540824514     0.045043211334106
    -0.045043211452293     0.045043211336379    -0.034505540824490
1 26
    -0.031781878148128     0.000000000000091     0.000000000000190
    -0.000000000000090    -0.039218127541654    -0.000126689762540
    -0.000000000000190    -0.000126689762543    -0.039218127541654
1 27
    -0.034505540824506     0.045043211217060     0.045043211217152
     0.045043211453425    -0.034505540824498     0.045043211335338
     0.045043211453342     0.045043211335164    -0.034505540824490
1 28
    -3.378041362074274    -2.310949458055333    -2.310949458060032
    -2.310949470182104    -3.378041362074700    -2.310949464123631
    -2.310949470177832    -2.310949464114660    -3.378041362075128
1 29
    -0.333191922948605    -0.000000000003434    -0.000000000007647
     0.000000000003378    -0.028027518017265    -0.006976534785487
     0.000000000007648    -0.006976534785650    -0.028027518017268
1 30
    -3.378041362075127     2.310949458172399     2.310949458114720
     2.310949470065036    -3.378041362073845    -2.310949464060397
     2.310949470123999    -2.310949464177041    -3.378041362075129
1 31
    -0.028027518017266     0.000000000003479    -0.006976534767227
    -0.000000000003422    -0.333191922948605    -0.000000000005730
    -0.006976534803910     0.000000000005672    -0.028027518017266
1 32
    -0.028027518017268     0.006976534767308     0.000000000007862
     0.006976534803829    -0.028027518017265     0.000000000005988
    -0.000000000007861    -0.000000000005932    -0.333191922948605
1 33
     0.000155493595972    -0.044407527832018     0.044407527827051
    -0.043899144462463     0.055152996948309     0.064523465791651
     0.043899144467386     0.064523465796428     0.055152996948322
1 34
    -3.378041362075129     2.310949457968173    -2.310949458026707
     2.310949470270119    -3.378041362074700     2.310949464177465
    -2.310949470211159     2.310949464059971    -3.378041362074273
1 35
     0.055152996948337    -0.043899144233344     0.064523465623036
    -0.044407528063778     0.000155493595944     0.044407527943361
     0.064523465965015     0.043899144352425     0.055152996948321
1 36
     0.055152996948322    -0.064523465625446     0.043899144233234
    -0.064523465962648     0.055152996948293     0.043899144347391
     0.044407528063892     0.044407527948442     0.000155493595987
1 37
    -0.028027518017265    -0.006976534767308     0.000000000007597
    -0.006976534803829    -0.028027518017268     0.000000000005635
    -0.000000000007598    -0.000000000005578    -0.333191922948605
1 38
    -0.028027518017266     0.000000000003742     0.006976534767227
    -0.000000000003687    -0.333191922948605    -0.000000000005893
     0.006976534803910     0.000000000005837    -0.028027518017266
1 39
     0.000155493595941     0.044407527827448    -0.044407527831364
     0.043899144467013     0.055152996948313     0.064523465794910
    -0.043899144463097     0.064523465793139     0.055152996948348
1 40
    -0.333191922948605    -0.000000000003788    -0.000000000007812
     0.000000000003731    -0.028027518017268     0.006976534785487
     0.000000000007811     0.006976534785650    -0.028027518017265
1 41
     0.029164320403754     0.004620520805410     0.004620520805419
     0.004620520829656     0.029164320403755     0.004620520817543
     0.004620520829648     0.004620520817525     0.029164320403756
1 42
     0.029164320403756    -0.004620520805644    -0.004620520805529
    -0.004620520829422     0.029164320403753     0.004620520817416
    -0.004620520829540     0.004620520817650     0.029164320403756
1 43
     0.055152996948309     0.043899144237079     0.064523465625759
     0.044407528060040     0.000155493595969    -0.044407527946959
     0.064523465962318    -0.043899144348824     0.055152996948324
1 44
     0.029164320403756    -0.004620520805236     0.004620520805353
    -0.004620520829832     0.029164320403755    -0.004620520817650
     0.004620520829714    -0.004620520817416     0.029164320403754
1 45
     0.055152996948348    -0.064523465624852    -0.043899144232905
    -0.064523465963181     0.055152996948329    -0.043899144348565
    -0.044407528064245    -0.044407527947248     0.000155493595926
1 46
    -3.378041362074273    -2.310949458085240     2.310949457972018
    -2.310949470153050    -3.378041362075554     2.310949464006564
     2.310949470264993     2.310949464231727    -3.378041362074274
1 47
     0.055152996948324     0.064523465623197    -0.043899144231486
     0.064523465964872     0.055152996948317     0.043899144351683
    -0.044407528065644     0.044407527944123     0.000155493595961
1 48
     0.055152996948309     0.043899144232422    -0.064523465624087
     0.044407528064747     0.000155493595972     0.044407527947114
    -0.064523465963992     0.043899144348674     0.055152996948321
1 49
     0.055152996948298     0.064523465627102     0.043899144236730
     0.064523465960957     0.055152996948353    -0.043899144346319
     0.044407528060424    -0.044407527949466     0.000155493595952
1 50
     0.029164320403754     0.004620520805470    -0.004620520805243
     0.004620520829598     0.029164320403757    -0.004620520817309
    -0.004620520829822    -0.004620520817759     0.029164320403754
1 51
     0.055152996948337    -0.043899144233554    -0.064523465624708
    -0.044407528063571     0.000155493595941    -0.044407527947706
    -0.064523465963340    -0.043899144348127     0.055152996948324
1 52
     0.000155493595967     0.044407527832392     0.044407527830270
     0.043899144462072     0.055152996948337    -0.064523465792686
     0.043899144464227    -0.064523465795389     0.055152996948298
1 53
     0.000155493595946    -0.044407527830425    -0.044407527831529
    -0.043899144464060     0.055152996948333    -0.064523465793875
    -0.043899144462944    -0.064523465794178     0.055152996948324
1 54
     0.031993240911962     0.000000000000000     0.000000000000000
    -0.000000000000000     0.031993240911962     0.000000000000000
     0.000000000000000     0.000000000000000     0.031993240911962
28 1
    -3.378041362074274    -2.310949458055332    -2.310949458060033
    -2.310949470182103    -3.378041362074699    -2.310949464123631
    -2.310949470177833    -2.310949464114660    -3.378041362075128
28 2
    -3.378041362075127     2.310949458172399     2.310949458114720
     2.310949470065036    -3.378041362073844    -2.310949464060397
     2.310949470123998    -2.310949464177040    -3.378041362075128
28 3
    -0.333191922948605    -0.000000000003434    -0.000000000007647
     0.000000000003378    -0.028027518017265    -0.006976534785487
     0.000000000007648    -0.006976534785650    -0.028027518017268
28 4
    -3.378041362075129     2.310949457968174    -2.310949458026707
     2.310949470270120    -3.378041362074701     2.310949464177466
    -2.310949470211159     2.310949464059972    -3.378041362074274
28 5
     0.055152996948322    -0.064523465625446     0.043899144233234
    -0.064523465962648     0.055152996948293     0.043899144347391
     0.044407528063892     0.044407527948442     0.000155493595987
28 6
     0.055152996948337    -0.043899144233344     0.064523465623036
    -0.044407528063779     0.000155493595944     0.044407527943361
     0.064523465965015     0.043899144352425     0.055152996948321
28 7
    -0.028027518017266     0.000000000003479    -0.006976534767227
    -0.000000000003422    -0.333191922948605    -0.000000000005730
    -0.006976534803910     0.000000000005672    -0.028027518017266
28 8
     0.000155493595972    -0.044407527832018     0.044407527827051
    -0.043899144462463     0.055152996948309     0.064523465791651
     0.043899144467386     0.064523465796428     0.055152996948322
28 9
    -0.028027518017268     0.006976534767308     0.000000000007862
     0.006976534803829    -0.028027518017265     0.000000000005988
    -0.000000000007861    -0.000000000005931    -0.333191922948605
28 10
    -3.378041362074273    -2.310949458085240     2.310949457972018
    -2.310949470153050    -3.378041362075554     2.310949464006564
     2.310949470264992     2.310949464231727    -3.378041362074273
28 11
     0.055152996948309     0.043899144232422    -0.064523465624087
     0.044407528064747     0.000155493595972     0.044407527947114
    -0.064523465963992     0.043899144348674     0.055152996948321
28 12
     0.055152996948324     0.064523465623197    -0.043899144231486
     0.064523465964872     0.055152996948317     0.043899144351683
    -0.044407528065644     0.044407527944123     0.000155493595961
28 13
     0.000155493595967     0.044407527832392     0.044407527830270
     0.043899144462072     0.055152996948337    -0.064523465792686
     0.043899144464227    -0.064523465795389     0.055152996948298
28 14
     0.031993240911962    -0.000000000000000     0.000000000000000
    -0.000000000000000     0.031993240911962    -0.000000000000000
     0.000000000000000     0.000000000000000     0.031993240911962
28 15
     0.000155493595946    -0.044407527830425    -0.044407527831529
    -0.043899144464060     0.055152996948333    -0.064523465793875
    -0.043899144462944    -0.064523465794178     0.055152996948324
28 16
     0.055152996948298     0.064523465627102     0.043899144236730
     0.064523465960957     0.055152996948353    -0.043899144346319
     0.044407528060424    -0.044407527949466     0.000155493595952
28 17
     0.055152996948337    -0.043899144233554    -0.064523465624708
    -0.044407528063571     0.000155493595941    -0.044407527947706
    -0.064523465963340    -0.043899144348127     0.055152996948324
28 18
     0.029164320403754     0.004620520805470    -0.004620520805243
     0.004620520829598     0.029164320403757    -0.004620520817309
    -0.004620520829822    -0.004620520817759     0.029164320403754
28 19
    -0.028027518017265    -0.006976534767308     0.000000000007597
    -0.006976534803829    -0.028027518017268     0.000000000005635
    -0.000000000007598    -0.000000000005578    -0.333191922948605
28 20
     0.000155493595941     0.044407527827448    -0.044407527831364
     0.043899144467013     0.055152996948313     0.064523465794910
    -0.043899144463097     0.064523465793139     0.055152996948348
28 21
    -0.028027518017266     0.000000000003742     0.006976534767227
    -0.000000000003687    -0.333191922948605    -0.000000000005893
     0.006976534803910     0.000000000005837    -0.028027518017266
28 22
     0.055152996948309     0.043899144237079     0.064523465625759
     0.044407528060040     0.000155493595969    -0.044407527946959
     0.064523465962318    -0.043899144348824     0.055152996948324
28 23
     0.055152996948348    -0.064523465624852    -0.043899144232905
    -0.064523465963181     0.055152996948329    -0.043899144348565
    -0.044407528064245    -0.044407527947248     0.000155493595926
28 24
     0.029164320403756    -0.004620520805236     0.004620520805353
    -0.004620520829832     0.029164320403755    -0.004620520817650
     0.004620520829714    -0.004620520817416     0.029164320403754
28 25
    -0.333191922948605    -0.000000000003788    -0.000000000007812
     0.000000000003731    -0.028027518017268     0.006976534785487
     0.000000000007811     0.006976534785650    -0.028027518017265
28 26
     0.029164320403756    -0.004620520805644    -0.004620520805529
    -0.004620520829422     0.029164320403753     0.004620520817416
    -0.004620520829540     0.004620520817650     0.029164320403756
28 27
     0.029164320403754     0.004620520805410     0.004620520805419
     0.004620520829656     0.029164320403755     0.004620520817543
     0.004620520829648     0.004620520817525     0.029164320403756
28 28
    13.541817497527468    -0.000000000000001     0.000000000000004
    -0.000000000000002    13.541817497527470    -0.000000000000002
     0.000000000000002    -0.000000000000000    13.541817497527477
28 29
     0.524633230691443    -0.072264563925577    -0.072264563918165
     0.077939202867277    -0.180466245479136    -0.217294753172629
     0.077939202861525    -0.217294753177754    -0.180466245477176
28 30
     0.524633230702580     0.072264563953271     0.072264563959026
    -0.077939202894710    -0.180466245482664    -0.217294753178261
    -0.077939202902306    -0.217294753183260    -0.180466245484785
28 31
    -0.180466245479178     0.077939202460069    -0.217294752604362
    -0.072264564305829     0.524633230692401    -0.072264564112236
    -0.217294753746981     0.077939202661547    -0.180466245478093
28 32
    -0.034505540824506     0.045043211217643    -0.045043211215436
     0.045043211452859    -0.034505540824481    -0.045043211333057
    -0.045043211455041    -0.045043211337445    -0.034505540824506
28 33
    -0.180466245484785     0.217294752609593    -0.077939202488220
     0.217294753747318    -0.180466245478054     0.077939202670557
     0.072264564330111    -0.072264564119399     0.524633230697970
28 34
    -0.180466245482703    -0.077939202484950    -0.217294752609040
     0.072264564330531     0.524633230701621     0.072264564144152
    -0.217294753751522    -0.077939202693282    -0.180466245483787
28 35
    -0.180466245477176     0.217294752608871     0.077939202460777
     0.217294753746122    -0.180466245483746    -0.077939202686404
    -0.072264564302588     0.072264564134985     0.524633230696053
28 36
    -0.034499783234867     0.044703509439519    -0.044703509437329
     0.044703509672961    -0.034499783234843    -0.044703509554062
    -0.044703509675127    -0.044703509558418    -0.034499783234867
28 37
    -0.180466245477096    -0.217294752605932     0.077939202450657
    -0.217294753743370    -0.180466245478134     0.077939202657734
    -0.072264564296076    -0.072264564110102     0.524633230690361
28 38
    -0.034505540824490    -0.045043211215361     0.045043211216502
    -0.045043211455141    -0.034505540824498    -0.045043211336388
     0.045043211453992    -0.045043211334098    -0.034505540824506
28 39
    -0.180466245482703    -0.077939202480703     0.217294752606072
     0.072264564318594     0.524633230695927    -0.072264564113637
     0.217294753748796     0.077939202670637    -0.180466245478093
28 40
    -0.034505540824490    -0.045043211219342    -0.045043211218217
    -0.045043211451144    -0.034505540824514     0.045043211334106
    -0.045043211452293     0.045043211336379    -0.034505540824490
28 41
    -0.034505540824506     0.045043211217060     0.045043211217152
     0.045043211453425    -0.034505540824498     0.045043211335338
     0.045043211453342     0.045043211335164    -0.034505540824490
28 42
    -0.031781878148128     0.000000000000091     0.000000000000190
    -0.000000000000090    -0.039218127541654    -0.000126689762540
    -0.000000000000190    -0.000126689762543    -0.039218127541654
28 43
     0.524633230694971     0.072264563939538    -0.072264563920555
    -0.077939202886671    -0.180466245482744     0.217294753174313
     0.077939202869527     0.217294753179599    -0.180466245477096
28 44
    -0.039218127541654    -0.000000000000090    -0.000126689762209
     0.000000000000089    -0.031781878148128     0.000000000000143
    -0.000126689762875    -0.000000000000142    -0.039218127541654
28 45
    -0.039218127541654     0.000126689762210    -0.000000000000186
     0.000126689762873    -0.039218127541654    -0.000000000000138
     0.000000000000186     0.000000000000137    -0.031781878148128
28 46
    -0.180466245484705    -0.217294752612532    -0.077939202494651
    -0.217294753750070    -0.180466245483826    -0.077939202695596
     0.072264564339990     0.072264564147703     0.524633230703662
28 47
    -0.180466245479177     0.077939202472213     0.217294752607330
    -0.072264564310444     0.524633230698095     0.072264564135430
     0.217294753749706    -0.077939202692088    -0.180466245483787
28 48
    -0.034499783234851    -0.044703509437254     0.044703509438386
    -0.044703509675226    -0.034499783234859    -0.044703509557368
     0.044703509674085    -0.044703509555095    -0.034499783234867
28 49
     0.524633230699052    -0.072264563933859     0.072264563951132
     0.077939202881253    -0.180466245479217     0.217294753176578
    -0.077939202900184     0.217294753181415    -0.180466245484705
28 50
    -0.039218127541654    -0.000126689762210    -0.000000000000191
    -0.000126689762873    -0.039218127541654    -0.000000000000145
     0.000000000000191     0.000000000000143    -0.031781878148128
28 51
    -0.039218127541654    -0.000000000000086     0.000126689762209
     0.000000000000084    -0.031781878148128     0.000000000000140
     0.000126689762875    -0.000000000000139    -0.039218127541654
28 52
    -0.034499783234851    -0.044703509441205    -0.044703509440089
    -0.044703509671259    -0.034499783234876     0.044703509555104
    -0.044703509672399     0.044703509557360    -0.034499783234851
28 53
    -0.031781878148128     0.000000000000085     0.000000000000187
    -0.000000000000083    -0.039218127541654     0.000126689762540
    -0.000000000000187     0.000126689762543    -0.039218127541654
28 54
    -0.034499783234867     0.044703509438940     0.044703509439031
     0.044703509673523    -0.034499783234859     0.044703509556327
     0.044703509673441     0.044703509556153    -0.034499783234851