54   
1    

1    
  0.0000000000002615   0.0070710678119060   0.0070710678118249
  -0.0017074339   -0.0957551067   -0.0957551129
   0.0011046155    0.0028367875    0.0028368016
  -0.0010997482    0.0027890313    0.0027890425
   0.0010195370   -0.0031577646    0.0007667325
   0.0000013334    0.0005608045    0.0005592851
  -0.0010311756    0.0007631732   -0.0031593822
   0.0020405516   -0.0042640046    0.0017832119
  -0.0020542190    0.0017905038   -0.0042577173
   0.0000011092    0.0005625271    0.0005624743
   0.0010195688    0.0007667085   -0.0031577912
   0.0000013666    0.0005592677    0.0005607791
  -0.0010311609   -0.0031593872    0.0007631394
   0.0006329260   -0.0000714156   -0.0000714346
  -0.0006315512   -0.0000728324   -0.0000728514
   0.0000022696    0.0002763931    0.0002763668
  -0.0000045794   -0.0002637471   -0.0002570180
   0.0000011939    0.0002253063    0.0002768298
   0.0000029382    0.0002778044    0.0002241147
   0.0020405170    0.0017832227   -0.0042639765
  -0.0020542474   -0.0042577136    0.0017905246
   0.0000010321    0.0005625240    0.0005624977
  -0.0000046352   -0.0002569865   -0.0002637031
   0.0000011323    0.0002768633    0.0002253664
   0.0000028821    0.0002241399    0.0002778226
   0.0006387066   -0.0000734420   -0.0000734162
   0.0000006106    0.0002782169    0.0002782155
  -0.0006352632   -0.0000756197   -0.0000756170
   0.0334242796    0.0407724238    0.0407724273
  -0.0000052846    0.0002475322    0.0002475445
  -0.0319444589    0.0396794515    0.0396794403
   0.0000477098    0.0023596404    0.0001996453
  -0.0000509109    0.0001967309    0.0023524310
  -0.0000058713   -0.0008409689   -0.0008514936
   0.0001261449    0.0074638765    0.0076296845
  -0.0001390335   -0.0003148691   -0.0007053107
   0.0001453930   -0.0007027232   -0.0003082264
   0.0000477442    0.0001996514    0.0023596098
  -0.0000508699    0.0023524095    0.0001967126
  -0.0000058883   -0.0008516120   -0.0008408823
   0.0000023493    0.0001488377    0.0001488213
  -0.0000643704   -0.0002390940   -0.0002391683
   0.0000663071   -0.0002386346   -0.0002386934
  -0.0007688526    0.0003069706   -0.0000756920
   0.0000020230   -0.0001742584   -0.0001728593
   0.0007716459   -0.0000763283    0.0003116632
   0.0001261257    0.0076296825    0.0074638899
  -0.0001390093   -0.0007053110   -0.0003148507
   0.0001454853   -0.0003081939   -0.0007026857
  -0.0007688707   -0.0000756731    0.0003070030
   0.0000019627   -0.0001727911   -0.0001742841
   0.0007716354    0.0003117073   -0.0000762826
  -0.0006180961    0.0000654250    0.0000654763
   0.0006234723    0.0000670890    0.0000671240
   0.0000009616   -0.0002262251   -0.0002262277
