phonopy:
  version: "2.19.1"
  frequency_unit_conversion_factor: 15.633304
  symmetry_tolerance: 1.00000e-05

space_group:
  type: "Fd-3m"
  number: 227
  Hall_symbol: "F 4d 2 3 -1d"

supercell_matrix:
- [   3,   0,   0 ]
- [   0,   3,   0 ]
- [   0,   0,   3 ]

primitive_cell:
  lattice:
  - [     0.000000000100000,     2.704416287198000,     2.704416287167000 ] # a
  - [     2.704416294294000,     0.000000000083000,     2.704416287184000 ] # b
  - [     2.704416294257000,     2.704416287178999,     0.000000000120000 ] # c
  points:
  - symbol: Si # 1
    coordinates: [  0.000000000008000,  0.000000000005000,  0.000000000019000 ]
    mass: 28.085000
  - symbol: Si # 2
    coordinates: [  0.249999999992000,  0.249999999994999,  0.249999999981000 ]
    mass: 28.085000
  reciprocal_lattice: # without 2pi
  - [    -0.184882778988644,     0.184882779464316,     0.184882779469033 ] # a*
  - [     0.184882778979278,    -0.184882779471357,     0.184882779466640 ] # b*
  - [     0.184882778984269,     0.184882779467050,    -0.184882779476006 ] # c*

unit_cell:
  lattice:
  - [     0.000000000100000,     2.704416287198000,     2.704416287167000 ] # a
  - [     2.704416294294000,     0.000000000083000,     2.704416287184000 ] # b
  - [     2.704416294257000,     2.704416287179000,     0.000000000120000 ] # c
  points:
  - symbol: Si # 1
    coordinates: [  0.000000000008000,  0.000000000005000,  0.000000000019000 ]
    mass: 28.085000
    reduced_to: 1
  - symbol: Si # 2
    coordinates: [  0.249999999992000,  0.249999999994999,  0.249999999981000 ]
    mass: 28.085000
    reduced_to: 2

supercell:
  lattice:
  - [     0.000000000300000,     8.113248861594000,     8.113248861501001 ] # a
  - [     8.113248882882001,     0.000000000249000,     8.113248861552000 ] # b
  - [     8.113248882771000,     8.113248861536999,     0.000000000360000 ] # c
  points:
  - symbol: Si # 1
    coordinates: [  0.000000000002667,  0.000000000001667,  0.000000000006333 ]
    mass: 28.085000
    reduced_to: 1
  - symbol: Si # 2
    coordinates: [  0.333333333336000,  0.000000000001667,  0.000000000006333 ]
    mass: 28.085000
    reduced_to: 1
  - symbol: Si # 3
    coordinates: [  0.666666666669333,  0.000000000001667,  0.000000000006333 ]
    mass: 28.085000
    reduced_to: 1
  - symbol: Si # 4
    coordinates: [  0.000000000002667,  0.333333333335000,  0.000000000006333 ]
    mass: 28.085000
    reduced_to: 1
  - symbol: Si # 5
    coordinates: [  0.333333333336000,  0.333333333335000,  0.000000000006333 ]
    mass: 28.085000
    reduced_to: 1
  - symbol: Si # 6
    coordinates: [  0.666666666669333,  0.333333333335000,  0.000000000006333 ]
    mass: 28.085000
    reduced_to: 1
  - symbol: Si # 7
    coordinates: [  0.000000000002667,  0.666666666668333,  0.000000000006333 ]
    mass: 28.085000
    reduced_to: 1
  - symbol: Si # 8
    coordinates: [  0.333333333336000,  0.666666666668333,  0.000000000006333 ]
    mass: 28.085000
    reduced_to: 1
  - symbol: Si # 9
    coordinates: [  0.666666666669333,  0.666666666668333,  0.000000000006333 ]
    mass: 28.085000
    reduced_to: 1
  - symbol: Si # 10
    coordinates: [  0.000000000002667,  0.000000000001667,  0.333333333339667 ]
    mass: 28.085000
    reduced_to: 1
  - symbol: Si # 11
    coordinates: [  0.333333333336000,  0.000000000001667,  0.333333333339667 ]
    mass: 28.085000
    reduced_to: 1
  - symbol: Si # 12
    coordinates: [  0.666666666669333,  0.000000000001667,  0.333333333339667 ]
    mass: 28.085000
    reduced_to: 1
  - symbol: Si # 13
    coordinates: [  0.000000000002667,  0.333333333335000,  0.333333333339667 ]
    mass: 28.085000
    reduced_to: 1
  - symbol: Si # 14
    coordinates: [  0.333333333336000,  0.333333333335000,  0.333333333339667 ]
    mass: 28.085000
    reduced_to: 1
  - symbol: Si # 15
    coordinates: [  0.666666666669333,  0.333333333335000,  0.333333333339667 ]
    mass: 28.085000
    reduced_to: 1
  - symbol: Si # 16
    coordinates: [  0.000000000002667,  0.666666666668333,  0.333333333339667 ]
    mass: 28.085000
    reduced_to: 1
  - symbol: Si # 17
    coordinates: [  0.333333333336000,  0.666666666668333,  0.333333333339667 ]
    mass: 28.085000
    reduced_to: 1
  - symbol: Si # 18
    coordinates: [  0.666666666669333,  0.666666666668333,  0.333333333339667 ]
    mass: 28.085000
    reduced_to: 1
  - symbol: Si # 19
    coordinates: [  0.000000000002667,  0.000000000001667,  0.666666666673000 ]
    mass: 28.085000
    reduced_to: 1
  - symbol: Si # 20
    coordinates: [  0.333333333336000,  0.000000000001667,  0.666666666673000 ]
    mass: 28.085000
    reduced_to: 1
  - symbol: Si # 21
    coordinates: [  0.666666666669333,  0.000000000001667,  0.666666666673000 ]
    mass: 28.085000
    reduced_to: 1
  - symbol: Si # 22
    coordinates: [  0.000000000002667,  0.333333333335000,  0.666666666673000 ]
    mass: 28.085000
    reduced_to: 1
  - symbol: Si # 23
    coordinates: [  0.333333333336000,  0.333333333335000,  0.666666666673000 ]
    mass: 28.085000
    reduced_to: 1
  - symbol: Si # 24
    coordinates: [  0.666666666669333,  0.333333333335000,  0.666666666673000 ]
    mass: 28.085000
    reduced_to: 1
  - symbol: Si # 25
    coordinates: [  0.000000000002667,  0.666666666668333,  0.666666666673000 ]
    mass: 28.085000
    reduced_to: 1
  - symbol: Si # 26
    coordinates: [  0.333333333336000,  0.666666666668333,  0.666666666673000 ]
    mass: 28.085000
    reduced_to: 1
  - symbol: Si # 27
    coordinates: [  0.666666666669333,  0.666666666668333,  0.666666666673000 ]
    mass: 28.085000
    reduced_to: 1
  - symbol: Si # 28
    coordinates: [  0.083333333330667,  0.083333333331666,  0.083333333327000 ]
    mass: 28.085000
    reduced_to: 28
  - symbol: Si # 29
    coordinates: [  0.416666666664000,  0.083333333331666,  0.083333333327000 ]
    mass: 28.085000
    reduced_to: 28
  - symbol: Si # 30
    coordinates: [  0.749999999997333,  0.083333333331666,  0.083333333327000 ]
    mass: 28.085000
    reduced_to: 28
  - symbol: Si # 31
    coordinates: [  0.083333333330667,  0.416666666665000,  0.083333333327000 ]
    mass: 28.085000
    reduced_to: 28
  - symbol: Si # 32
    coordinates: [  0.416666666664000,  0.416666666665000,  0.083333333327000 ]
    mass: 28.085000
    reduced_to: 28
  - symbol: Si # 33
    coordinates: [  0.749999999997333,  0.416666666665000,  0.083333333327000 ]
    mass: 28.085000
    reduced_to: 28
  - symbol: Si # 34
    coordinates: [  0.083333333330667,  0.749999999998333,  0.083333333327000 ]
    mass: 28.085000
    reduced_to: 28
  - symbol: Si # 35
    coordinates: [  0.416666666664000,  0.749999999998333,  0.083333333327000 ]
    mass: 28.085000
    reduced_to: 28
  - symbol: Si # 36
    coordinates: [  0.749999999997333,  0.749999999998333,  0.083333333327000 ]
    mass: 28.085000
    reduced_to: 28
  - symbol: Si # 37
    coordinates: [  0.083333333330667,  0.083333333331666,  0.416666666660333 ]
    mass: 28.085000
    reduced_to: 28
  - symbol: Si # 38
    coordinates: [  0.416666666664000,  0.083333333331666,  0.416666666660333 ]
    mass: 28.085000
    reduced_to: 28
  - symbol: Si # 39
    coordinates: [  0.749999999997333,  0.083333333331666,  0.416666666660333 ]
    mass: 28.085000
    reduced_to: 28
  - symbol: Si # 40
    coordinates: [  0.083333333330667,  0.416666666665000,  0.416666666660333 ]
    mass: 28.085000
    reduced_to: 28
  - symbol: Si # 41
    coordinates: [  0.416666666664000,  0.416666666665000,  0.416666666660333 ]
    mass: 28.085000
    reduced_to: 28
  - symbol: Si # 42
    coordinates: [  0.749999999997333,  0.416666666665000,  0.416666666660333 ]
    mass: 28.085000
    reduced_to: 28
  - symbol: Si # 43
    coordinates: [  0.083333333330667,  0.749999999998333,  0.416666666660333 ]
    mass: 28.085000
    reduced_to: 28
  - symbol: Si # 44
    coordinates: [  0.416666666664000,  0.749999999998333,  0.416666666660333 ]
    mass: 28.085000
    reduced_to: 28
  - symbol: Si # 45
    coordinates: [  0.749999999997333,  0.749999999998333,  0.416666666660333 ]
    mass: 28.085000
    reduced_to: 28
  - symbol: Si # 46
    coordinates: [  0.083333333330667,  0.083333333331666,  0.749999999993667 ]
    mass: 28.085000
    reduced_to: 28
  - symbol: Si # 47
    coordinates: [  0.416666666664000,  0.083333333331666,  0.749999999993667 ]
    mass: 28.085000
    reduced_to: 28
  - symbol: Si # 48
    coordinates: [  0.749999999997333,  0.083333333331666,  0.749999999993667 ]
    mass: 28.085000
    reduced_to: 28
  - symbol: Si # 49
    coordinates: [  0.083333333330667,  0.416666666665000,  0.749999999993667 ]
    mass: 28.085000
    reduced_to: 28
  - symbol: Si # 50
    coordinates: [  0.416666666664000,  0.416666666665000,  0.749999999993667 ]
    mass: 28.085000
    reduced_to: 28
  - symbol: Si # 51
    coordinates: [  0.749999999997333,  0.416666666665000,  0.749999999993667 ]
    mass: 28.085000
    reduced_to: 28
  - symbol: Si # 52
    coordinates: [  0.083333333330667,  0.749999999998333,  0.749999999993667 ]
    mass: 28.085000
    reduced_to: 28
  - symbol: Si # 53
    coordinates: [  0.416666666664000,  0.749999999998333,  0.749999999993667 ]
    mass: 28.085000
    reduced_to: 28
  - symbol: Si # 54
    coordinates: [  0.749999999997333,  0.749999999998333,  0.749999999993667 ]
    mass: 28.085000
    reduced_to: 28

displacements:
- atom:    1
  displacement:
    [   0.0000000000002615,  0.0070710678119060,  0.0070710678118249 ]
  forces:
  - [  -0.0017074338529856, -0.0957551067188172, -0.0957551129230926 ]
  - [   0.0011046154607926,  0.0028367875008866,  0.0028368015994124 ]
  - [  -0.0010997482400854,  0.0027890313265824,  0.0027890425475486 ]
  - [   0.0010195370295953, -0.0031577646285980,  0.0007667324774007 ]
  - [   0.0000013334185584,  0.0005608045273092,  0.0005592850533701 ]
  - [  -0.0010311756271035,  0.0007631732369057, -0.0031593821731481 ]
  - [   0.0020405515844961, -0.0042640045528858,  0.0017832119124316 ]
  - [  -0.0020542190439357,  0.0017905038241533, -0.0042577173092048 ]
  - [   0.0000011092295019,  0.0005625270519412,  0.0005624743062370 ]
  - [   0.0010195687916283,  0.0007667085285113, -0.0031577912381581 ]
  - [   0.0000013665994020,  0.0005592677347143,  0.0005607790620422 ]
  - [  -0.0010311608707282, -0.0031593871586626,  0.0007631393628339 ]
  - [   0.0006329260425074, -0.0000714156131065, -0.0000714345525432 ]
  - [  -0.0006315511903475, -0.0000728323634543, -0.0000728513943449 ]
  - [   0.0000022696262419,  0.0002763931026951,  0.0002763667709624 ]
  - [  -0.0000045794033582, -0.0002637470726253, -0.0002570179824362 ]
  - [   0.0000011938546689,  0.0002253062552897,  0.0002768297724063 ]
  - [   0.0000029382193109,  0.0002778044067779,  0.0002241146784586 ]
  - [   0.0020405170229768,  0.0017832226775723, -0.0042639765195878 ]
  - [  -0.0020542474463313, -0.0042577136239329,  0.0017905245567087 ]
  - [   0.0000010321317201,  0.0005625239525979,  0.0005624977367669 ]
  - [  -0.0000046351814286, -0.0002569864516653, -0.0002637030922018 ]
  - [   0.0000011322835541,  0.0002768632819465,  0.0002253663808124 ]
  - [   0.0000028820779038,  0.0002241399477389,  0.0002778226097288 ]
  - [   0.0006387066069428, -0.0000734419699108, -0.0000734162063623 ]
  - [   0.0000006106127338,  0.0002782169104462,  0.0002782154594446 ]
  - [  -0.0006352632395783, -0.0000756196962668, -0.0000756170225619 ]
  - [   0.0334242795693408,  0.0407724238262814,  0.0407724272870129 ]
  - [  -0.0000052846076893,  0.0002475321874553,  0.0002475444909461 ]
  - [  -0.0319444588596601,  0.0396794514920448,  0.0396794402706922 ]
  - [   0.0000477097837022,  0.0023596403931649,  0.0001996452994247 ]
  - [  -0.0000509108945122,  0.0001967308626914,  0.0023524310075333 ]
  - [  -0.0000058713103148, -0.0008409688863206, -0.0008514936428472 ]
  - [   0.0001261448995392,  0.0074638765319642,  0.0076296845096014 ]
  - [  -0.0001390334630635, -0.0003148691251494, -0.0007053107422162 ]
  - [   0.0001453929985533, -0.0007027232361979, -0.0003082264438159 ]
  - [   0.0000477441605070,  0.0001996513993954,  0.0023596098390525 ]
  - [  -0.0000508699117436,  0.0023524094862274,  0.0001967125803695 ]
  - [  -0.0000058883242222, -0.0008516120223128, -0.0008408823393909 ]
  - [   0.0000023493252265,  0.0001488376753446,  0.0001488213485234 ]
  - [  -0.0000643703599367, -0.0002390939946572, -0.0002391683311145 ]
  - [   0.0000663070601407, -0.0002386345703966, -0.0002386933613576 ]
  - [  -0.0007688525523628,  0.0003069706194953, -0.0000756919636566 ]
  - [   0.0000020230147540, -0.0001742584315010, -0.0001728592764564 ]
  - [   0.0007716459337913, -0.0000763283471500,  0.0003116631831915 ]
  - [   0.0001261257319287,  0.0076296825425924,  0.0074638898800081 ]
  - [  -0.0001390092936051, -0.0007053109738604, -0.0003148506966234 ]
  - [   0.0001454853033034, -0.0003081939380058, -0.0007026857408138 ]
  - [  -0.0007688706977332, -0.0000756730996323,  0.0003070030119253 ]
  - [   0.0000019626589761, -0.0001727910793271, -0.0001742840532848 ]
  - [   0.0007716354401835,  0.0003117073428332, -0.0000762825781474 ]
  - [  -0.0006180960929668,  0.0000654250397975,  0.0000654762636301 ]
  - [   0.0006234723423442,  0.0000670889656774,  0.0000671240003128 ]
  - [   0.0000009616488664, -0.0002262250765971, -0.0002262276754225 ]
