# Tetrahedron method
        0.0000000000        0.0000000000
        0.0500000000        0.0000166154
        0.1000000000        0.0000664620
        0.1500000000        0.0001495396
        0.2000000000        0.0002658483
        0.2500000000        0.0004153882
        0.3000000000        0.0005981592
        0.3500000000        0.0011012854
        0.4000000000        0.0016058595
        0.4500000000        0.0019997486
        0.5000000000        0.0024531966
        0.5500000000        0.0030072397
        0.6000000000        0.0036618218
        0.6500000000        0.0044138332
        0.7000000000        0.0052363578
        0.7500000000        0.0060580097
        0.8000000000        0.0069267923
        0.8500000000        0.0078113327
        0.9000000000        0.0087400115
        0.9500000000        0.0098486637
        1.0000000000        0.0111015089
        1.0500000000        0.0123112424
        1.1000000000        0.0135146022
        1.1500000000        0.0147850844
        1.2000000000        0.0163310587
        1.2500000000        0.0180342807
        1.3000000000        0.0196637280
        1.3500000000        0.0212763598
        1.4000000000        0.0230498271
        1.4500000000        0.0249489079
        1.5000000000        0.0270542408
        1.5500000000        0.0291247864
        1.6000000000        0.0312877569
        1.6500000000        0.0337227588
        1.7000000000        0.0361434408
        1.7500000000        0.0388572030
        1.8000000000        0.0416531385
        1.8500000000        0.0446536067
        1.9000000000        0.0476775761
        1.9500000000        0.0507589839
        2.0000000000        0.0542935937
        2.0500000000        0.0581344441
        2.1000000000        0.0618987332
        2.1500000000        0.0658469680
        2.2000000000        0.0701811839
        2.2500000000        0.0752003157
        2.3000000000        0.0802790321
        2.3500000000        0.0853463168
        2.4000000000        0.0909903880
        2.4500000000        0.0974304273
        2.5000000000        0.1041448198
        2.5500000000        0.1111058578
        2.6000000000        0.1193143877
        2.6500000000        0.1282826204
        2.7000000000        0.1379225776
        2.7500000000        0.1491425157
        2.8000000000        0.1612709326
        2.8500000000        0.1765921957
        2.9000000000        0.1929322520
        2.9500000000        0.2163579222
        3.0000000000        0.3242753808
        3.0500000000        0.4585954733
        3.1000000000        0.4582028313
        3.1500000000        0.4731790965
        3.2000000000        0.4796574907
        3.2500000000        0.4962649712
        3.3000000000        0.5106119904
        3.3500000000        0.5235622276
        3.4000000000        0.5391335852
        3.4500000000        0.5560625239
        3.5000000000        0.5757129832
        3.5500000000        0.6040007449
        3.6000000000        0.6753278785
        3.6500000000        0.7294339049
        3.7000000000        0.7850768557
        3.7500000000        0.8519159892
        3.8000000000        0.9356812497
        3.8500000000        1.0432291831
        3.9000000000        1.2900794595
        3.9500000000        1.4060848083
        4.0000000000        1.2486731365
        4.0500000000        1.1864536419
        4.1000000000        1.1398843789
        4.1500000000        1.1116126788
        4.2000000000        1.0916500696
        4.2500000000        0.9679966160
        4.3000000000        0.8675036389
        4.3500000000        0.7990293947
        4.4000000000        0.7460133270
        4.4500000000        0.6974101316
        4.5000000000        0.6561214664
        4.5500000000        0.6218788704
        4.6000000000        0.5903322192
        4.6500000000        0.5561052084
        4.7000000000        0.5321866330
        4.7500000000        0.5075190508
        4.8000000000        0.4894214107
        4.8500000000        0.4675733060
        4.9000000000        0.4512575015
        4.9500000000        0.4369857839
        5.0000000000        0.4246634385
        5.0500000000        0.4128595393
        5.1000000000        0.4045646335
        5.1500000000        0.3959500660
        5.2000000000        0.3895978061
        5.2500000000        0.3848957220
        5.3000000000        0.3820860325
        5.3500000000        0.3813493330
        5.4000000000        0.3854377996
        5.4500000000        0.3905184805
        5.5000000000        0.3958572809
        5.5500000000        0.4037807617
        5.6000000000        0.4071780994
        5.6500000000        0.4096324865
        5.7000000000        0.4146637730
        5.7500000000        0.4167750382
        5.8000000000        0.4216526839
        5.8500000000        0.4245421947
        5.9000000000        0.4267043137
        5.9500000000        0.4279141380
        6.0000000000        0.3318761188
        6.0500000000        0.2869337890
        6.1000000000        0.2499083892
        6.1500000000        0.2192193026
        6.2000000000        0.1938531348
        6.2500000000        0.1647910442
        6.3000000000        0.1389892702
        6.3500000000        0.1084393506
        6.4000000000        0.0459832021
        6.4500000000        0.0470136387
        6.5000000000        0.0482974106
        6.5500000000        0.0496053689
        6.6000000000        0.0509187118
        6.6500000000        0.0521828188
        6.7000000000        0.0534446118
        6.7500000000        0.0546707495
        6.8000000000        0.0559721372
        6.8500000000        0.0575498499
        6.9000000000        0.0590823698
        6.9500000000        0.0606167586
        7.0000000000        0.0621034146
        7.0500000000        0.0635753503
        7.1000000000        0.0650402036
        7.1500000000        0.0668659769
        7.2000000000        0.0687105091
        7.2500000000        0.0705071660
        7.3000000000        0.0722720428
        7.3500000000        0.0740173083
        7.4000000000        0.0757388447
        7.4500000000        0.0779677109
        7.5000000000        0.0800990625
        7.5500000000        0.0822253086
        7.6000000000        0.0842783389
        7.6500000000        0.0863217033
        7.7000000000        0.0886880499
        7.7500000000        0.0911945783
        7.8000000000        0.0936920531
        7.8500000000        0.0961306903
        7.9000000000        0.0985441718
        7.9500000000        0.1011551360
        8.0000000000        0.1041577260
        8.0500000000        0.1070538395
        8.1000000000        0.1099071893
        8.1500000000        0.1127071641
        8.2000000000        0.1159206946
        8.2500000000        0.1193342759
        8.3000000000        0.1226901344
        8.3500000000        0.1260107908
        8.4000000000        0.1292671800
        8.4500000000        0.1332835929
        8.5000000000        0.1371951359
        8.5500000000        0.1410897986
        8.6000000000        0.1448866019
        8.6500000000        0.1492276512
        8.7000000000        0.1538289651
        8.7500000000        0.1583100682
        8.8000000000        0.1627727744
        8.8500000000        0.1675908868
        8.9000000000        0.1729393807
        8.9500000000        0.1781995263
        9.0000000000        0.1833714180
        9.0500000000        0.1890544407
        9.1000000000        0.1952266715
        9.1500000000        0.2013418421
        9.2000000000        0.2074081805
        9.2500000000        0.2142346566
        9.3000000000        0.2214650908
        9.3500000000        0.2287069229
        9.4000000000        0.2360110339
        9.4500000000        0.2443985543
        9.5000000000        0.2531639212
        9.5500000000        0.2619774426
        9.6000000000        0.2713289352
        9.6500000000        0.2820058831
        9.7000000000        0.2931039831
        9.7500000000        0.3046804924
        9.8000000000        0.3178139566
        9.8500000000        0.3324565249
        9.9000000000        0.3484967925
        9.9500000000        0.3664502657
       10.0000000000        0.3884119283
       10.0500000000        0.4150714904
       10.1000000000        0.4491278887
       10.1500000000        0.4988478670
       10.2000000000        0.5953974778
       10.2500000000        0.7460889064
       10.3000000000        0.5316276332
       10.3500000000        0.4572682257
       10.4000000000        0.4091843799
       10.4500000000        0.3741323640
       10.5000000000        0.3423539512
       10.5500000000        0.3175003856
       10.6000000000        0.2940344855
       10.6500000000        0.2699811348
       10.7000000000        0.2489457214
       10.7500000000        0.2277404854
       10.8000000000        0.2033596260
       10.8500000000        0.1826204346
       10.9000000000        0.1642587581
       10.9500000000        0.1636350178
       11.0000000000        0.1572229485
       11.0500000000        0.1604685449
       11.1000000000        0.1740435576
       11.1500000000        0.1799995935
       11.2000000000        0.2060636984
       11.2500000000        0.2580987379
       11.3000000000        0.3406603165
       11.3500000000        0.3600578553
       11.4000000000        0.3582206991
       11.4500000000        0.3743424624
       11.5000000000        0.3708573484
       11.5500000000        0.3786194987
       11.6000000000        0.3899099615
       11.6500000000        0.3823914700
       11.7000000000        0.3822313381
       11.7500000000        0.3925281245
       11.8000000000        0.3975354572
       11.8500000000        0.3848705069
       11.9000000000        0.3905740286
       11.9500000000        0.3879289571
       12.0000000000        0.3858824538
       12.0500000000        0.3856641859
       12.1000000000        0.3917693206
       12.1500000000        0.3822360684
       12.2000000000        0.3503886772
       12.2500000000        0.3338816185
       12.3000000000        0.3214924364
       12.3500000000        0.3133224888
       12.4000000000        0.3060112611
       12.4500000000        0.2991142989
       12.5000000000        0.2920260452
       12.5500000000        0.2864423788
       12.6000000000        0.2815359338
       12.6500000000        0.2767359635
       12.7000000000        0.2720062847
       12.7500000000        0.2673305522
       12.8000000000        0.2633204948
       12.8500000000        0.2593686018
       12.9000000000        0.2555160612
       12.9500000000        0.2518901111
       13.0000000000        0.2485921235
       13.0500000000        0.2450124948
       13.1000000000        0.2415429895
       13.1500000000        0.2383624026
       13.2000000000        0.2357942117
       13.2500000000        0.2326937255
       13.3000000000        0.2293790498
       13.3500000000        0.2264458195
       13.4000000000        0.2240918359
       13.4500000000        0.2217919182
       13.5000000000        0.2185680527
       13.5500000000        0.2158789900
       13.6000000000        0.3597774147
       13.6500000000        0.5048965318
       13.7000000000        0.6326848061
       13.7500000000        0.7434917065
       13.8000000000        0.8684207588
       13.8500000000        1.0157215566
       13.9000000000        1.2021795919
       13.9500000000        1.5139723108
       14.0000000000        1.7365198842
       14.0500000000        1.6215500678
       14.1000000000        1.6557330046
       14.1500000000        1.6918226498
       14.2000000000        1.7326536249
       14.2500000000        1.7830399315
       14.3000000000        1.8438527029
       14.3500000000        1.9190050574
       14.4000000000        2.0208823399
       14.4500000000        2.1507439009
       14.5000000000        2.3400056737
       14.5500000000        2.6584606127
       14.6000000000        3.5809876077
       14.6500000000        2.1639566696
       14.7000000000        1.5218868375
       14.7500000000        1.2183350384
       14.8000000000        1.0326178504
       14.8500000000        0.8986917026
       14.9000000000        0.7936968494
       14.9500000000        0.7085761270
       15.0000000000        0.6356209080
       15.0500000000        0.5724824427
       15.1000000000        0.5148762944
       15.1500000000        0.4615937229
       15.2000000000        0.4112166770
       15.2500000000        0.3597582971
       15.3000000000        0.3063973292
       15.3500000000        0.2472035690
       15.4000000000        0.1677979216
       15.4500000000        0.0000000000
       15.5000000000        0.0000000000
       15.5500000000        0.0000000000
       15.6000000000        0.0000000000
       15.6500000000        0.0000000000
       15.7000000000        0.0000000000
       15.7500000000        0.0000000000
       15.8000000000        0.0000000000
       15.8500000000        0.0000000000
       15.9000000000        0.0000000000
       15.9500000000        0.0000000000
       16.0000000000        0.0000000000
       16.0500000000        0.0000000000
       16.1000000000        0.0000000000
       16.1500000000        0.0000000000
       16.2000000000        0.0000000000
