------------------------------------------------------------
          Invoking FHI-aims ...

          When using FHI-aims, please cite the following reference:

            Volker Blum, Ralf Gehrke, Felix Hanke, Paula Havu,
            Ville Havu, Xinguo Ren, Karsten Reuter, and Matthias Scheffler,
            'Ab Initio Molecular Simulations with Numeric Atom-Centered Orbitals',
            Computer Physics Communications 180, 2175-2196 (2009)

          In addition, many other developments in FHI-aims are likely important for
          your particular application. A partial list of references is given at the end of
          this file. Thank you for giving credit to the authors of these developments.

          For any questions about FHI-aims, please visit our slack channel at

            https://fhi-aims.slack.com

          and our main development and support site at

            https://aims-git.rz-berlin.mpg.de .

          The latter site, in particular, has a wiki to collect information, as well
          as an issue tracker to log discussions, suggest improvements, and report issues
          or bugs. https://aims-git.rz-berlin.mpg.de is also the main development site
          of the project and all new and updated code versions can be obtained there.
          Please send an email to aims-coordinators@fhi-berlin.mpg.de and we will add
          you to these sites. They are for you and everyone is welcome there.

------------------------------------------------------------



  Date     :  20200805, Time     :  140916.834
  Time zero on CPU 1             :   0.131678700000000E+01  s.
  Internal wall clock time zero  :           365868556.834  s.

  FHI-aims created a unique identifier for this run for later identification
  aims_uuid : 859C6181-1B67-45A0-A744-F2B7C0BB9988

  Build configuration of the current instance of FHI-aims
  -------------------------------------------------------
  FHI-aims version      : 200804
  Commit number         : 72e1d098a
  CMake host system     : Linux-3.10.0-1127.10.1.el7.x86_64
  CMake version         : 3.16.2
  Fortran compiler      : /sw/comm/impi/compilers_and_libraries_2018.6.288/linux/mpi/intel64/bin/mpiifort (Intel) version 18.0.6.20190525
  Fortran compiler flags: -O3 -ip -fp-model precise
  C compiler            : /sw/comm/impi/compilers_and_libraries_2018.6.288/linux/mpi/intel64/bin/mpiicc (Intel) version 18.0.6.20190525
  C compiler flags      : -O3 -ip -fp-model precise -std=gnu99
  C++ compiler          : /sw/comm/impi/compilers_and_libraries_2018.6.288/linux/mpi/intel64/bin/mpiicpc (Intel) version 18.0.6.20190525
  C++ compiler flags    : -O3 -ip -fp-model precise
  ELPA2 kernel          : AVX512
  Using MPI
  Using ScaLAPACK
  Using LibXC
  Using SPGlib
  Using i-PI
  Using RLSY
  Linking against: /sw/compiler/intel/compilers_and_libraries_2018.6.288/linux/mkl/lib/intel64/libmkl_scalapack_lp64.so
                   /sw/compiler/intel/compilers_and_libraries_2018.6.288/linux/mkl/lib/intel64/libmkl_intel_lp64.so
                   /sw/compiler/intel/compilers_and_libraries_2018.6.288/linux/mkl/lib/intel64/libmkl_sequential.so
                   /sw/compiler/intel/compilers_and_libraries_2018.6.288/linux/mkl/lib/intel64/libmkl_core.so
                   /sw/compiler/intel/compilers_and_libraries_2018.6.288/linux/mkl/lib/intel64/libmkl_blacs_intelmpi_lp64.so

  Using      192 parallel tasks.
  Task        0 on host bcn1001 reporting.
  Task        1 on host bcn1001 reporting.
  Task        2 on host bcn1001 reporting.
  Task        3 on host bcn1001 reporting.
  Task        4 on host bcn1001 reporting.
  Task        5 on host bcn1001 reporting.
  Task        6 on host bcn1001 reporting.
  Task        7 on host bcn1001 reporting.
  Task        8 on host bcn1001 reporting.
  Task        9 on host bcn1001 reporting.
  Task       10 on host bcn1001 reporting.
  Task       11 on host bcn1001 reporting.
  Task       12 on host bcn1001 reporting.
  Task       13 on host bcn1001 reporting.
  Task       14 on host bcn1001 reporting.
  Task       15 on host bcn1001 reporting.
  Task       16 on host bcn1001 reporting.
  Task       17 on host bcn1001 reporting.
  Task       18 on host bcn1001 reporting.
  Task       19 on host bcn1001 reporting.
  Task       20 on host bcn1001 reporting.
  Task       21 on host bcn1001 reporting.
  Task       22 on host bcn1001 reporting.
  Task       23 on host bcn1001 reporting.
  Task       24 on host bcn1001 reporting.
  Task       25 on host bcn1001 reporting.
  Task       26 on host bcn1001 reporting.
  Task       27 on host bcn1001 reporting.
  Task       28 on host bcn1001 reporting.
  Task       29 on host bcn1001 reporting.
  Task       30 on host bcn1001 reporting.
  Task       31 on host bcn1001 reporting.
  Task       32 on host bcn1001 reporting.
  Task       33 on host bcn1001 reporting.
  Task       34 on host bcn1001 reporting.
  Task       35 on host bcn1001 reporting.
  Task       36 on host bcn1001 reporting.
  Task       37 on host bcn1001 reporting.
  Task       38 on host bcn1001 reporting.
  Task       39 on host bcn1001 reporting.
  Task       40 on host bcn1001 reporting.
  Task       41 on host bcn1001 reporting.
  Task       42 on host bcn1001 reporting.
  Task       43 on host bcn1001 reporting.
  Task       44 on host bcn1001 reporting.
  Task       45 on host bcn1001 reporting.
  Task       46 on host bcn1001 reporting.
  Task       47 on host bcn1001 reporting.
  Task       48 on host bcn1001 reporting.
  Task       49 on host bcn1001 reporting.
  Task       50 on host bcn1001 reporting.
  Task       51 on host bcn1001 reporting.
  Task       52 on host bcn1001 reporting.
  Task       53 on host bcn1001 reporting.
  Task       54 on host bcn1001 reporting.
  Task       55 on host bcn1001 reporting.
  Task       56 on host bcn1001 reporting.
  Task       57 on host bcn1001 reporting.
  Task       58 on host bcn1001 reporting.
  Task       59 on host bcn1001 reporting.
  Task       60 on host bcn1001 reporting.
  Task       61 on host bcn1001 reporting.
  Task       62 on host bcn1001 reporting.
  Task       63 on host bcn1001 reporting.
  Task       64 on host bcn1001 reporting.
  Task       65 on host bcn1001 reporting.
  Task       66 on host bcn1001 reporting.
  Task       67 on host bcn1001 reporting.
  Task       68 on host bcn1001 reporting.
  Task       69 on host bcn1001 reporting.
  Task       70 on host bcn1001 reporting.
  Task       71 on host bcn1001 reporting.
  Task       72 on host bcn1001 reporting.
  Task       73 on host bcn1001 reporting.
  Task       74 on host bcn1001 reporting.
  Task       75 on host bcn1001 reporting.
  Task       76 on host bcn1001 reporting.
  Task       77 on host bcn1001 reporting.
  Task       78 on host bcn1001 reporting.
  Task       79 on host bcn1001 reporting.
  Task       80 on host bcn1001 reporting.
  Task       81 on host bcn1001 reporting.
  Task       82 on host bcn1001 reporting.
  Task       83 on host bcn1001 reporting.
  Task       84 on host bcn1001 reporting.
  Task       85 on host bcn1001 reporting.
  Task       86 on host bcn1001 reporting.
  Task       87 on host bcn1001 reporting.
  Task       88 on host bcn1001 reporting.
  Task       89 on host bcn1001 reporting.
  Task       90 on host bcn1001 reporting.
  Task       91 on host bcn1001 reporting.
  Task       92 on host bcn1001 reporting.
  Task       93 on host bcn1001 reporting.
  Task       94 on host bcn1001 reporting.
  Task       95 on host bcn1001 reporting.
  Task       96 on host bcn1003 reporting.
  Task       97 on host bcn1003 reporting.
  Task       98 on host bcn1003 reporting.
  Task       99 on host bcn1003 reporting.
  Task      100 on host bcn1003 reporting.
  Task      101 on host bcn1003 reporting.
  Task      102 on host bcn1003 reporting.
  Task      103 on host bcn1003 reporting.
  Task      104 on host bcn1003 reporting.
  Task      105 on host bcn1003 reporting.
  Task      106 on host bcn1003 reporting.
  Task      107 on host bcn1003 reporting.
  Task      108 on host bcn1003 reporting.
  Task      109 on host bcn1003 reporting.
  Task      110 on host bcn1003 reporting.
  Task      111 on host bcn1003 reporting.
  Task      112 on host bcn1003 reporting.
  Task      113 on host bcn1003 reporting.
  Task      114 on host bcn1003 reporting.
  Task      115 on host bcn1003 reporting.
  Task      116 on host bcn1003 reporting.
  Task      117 on host bcn1003 reporting.
  Task      118 on host bcn1003 reporting.
  Task      119 on host bcn1003 reporting.
  Task      120 on host bcn1003 reporting.
  Task      121 on host bcn1003 reporting.
  Task      122 on host bcn1003 reporting.
  Task      123 on host bcn1003 reporting.
  Task      124 on host bcn1003 reporting.
  Task      125 on host bcn1003 reporting.
  Task      126 on host bcn1003 reporting.
  Task      127 on host bcn1003 reporting.
  Task      128 on host bcn1003 reporting.
  Task      129 on host bcn1003 reporting.
  Task      130 on host bcn1003 reporting.
  Task      131 on host bcn1003 reporting.
  Task      132 on host bcn1003 reporting.
  Task      133 on host bcn1003 reporting.
  Task      134 on host bcn1003 reporting.
  Task      135 on host bcn1003 reporting.
  Task      136 on host bcn1003 reporting.
  Task      137 on host bcn1003 reporting.
  Task      138 on host bcn1003 reporting.
  Task      139 on host bcn1003 reporting.
  Task      140 on host bcn1003 reporting.
  Task      141 on host bcn1003 reporting.
  Task      142 on host bcn1003 reporting.
  Task      143 on host bcn1003 reporting.
  Task      144 on host bcn1003 reporting.
  Task      145 on host bcn1003 reporting.
  Task      146 on host bcn1003 reporting.
  Task      147 on host bcn1003 reporting.
  Task      148 on host bcn1003 reporting.
  Task      149 on host bcn1003 reporting.
  Task      150 on host bcn1003 reporting.
  Task      151 on host bcn1003 reporting.
  Task      152 on host bcn1003 reporting.
  Task      153 on host bcn1003 reporting.
  Task      154 on host bcn1003 reporting.
  Task      155 on host bcn1003 reporting.
  Task      156 on host bcn1003 reporting.
  Task      157 on host bcn1003 reporting.
  Task      158 on host bcn1003 reporting.
  Task      159 on host bcn1003 reporting.
  Task      160 on host bcn1003 reporting.
  Task      161 on host bcn1003 reporting.
  Task      162 on host bcn1003 reporting.
  Task      163 on host bcn1003 reporting.
  Task      164 on host bcn1003 reporting.
  Task      165 on host bcn1003 reporting.
  Task      166 on host bcn1003 reporting.
  Task      167 on host bcn1003 reporting.
  Task      168 on host bcn1003 reporting.
  Task      169 on host bcn1003 reporting.
  Task      170 on host bcn1003 reporting.
  Task      171 on host bcn1003 reporting.
  Task      172 on host bcn1003 reporting.
  Task      173 on host bcn1003 reporting.
  Task      174 on host bcn1003 reporting.
  Task      175 on host bcn1003 reporting.
  Task      176 on host bcn1003 reporting.
  Task      177 on host bcn1003 reporting.
  Task      178 on host bcn1003 reporting.
  Task      179 on host bcn1003 reporting.
  Task      180 on host bcn1003 reporting.
  Task      181 on host bcn1003 reporting.
  Task      182 on host bcn1003 reporting.
  Task      183 on host bcn1003 reporting.
  Task      184 on host bcn1003 reporting.
  Task      185 on host bcn1003 reporting.
  Task      186 on host bcn1003 reporting.
  Task      187 on host bcn1003 reporting.
  Task      188 on host bcn1003 reporting.
  Task      189 on host bcn1003 reporting.
  Task      190 on host bcn1003 reporting.
  Task      191 on host bcn1003 reporting.

  Performing system and environment tests:
  | Environment variable OMP_NUM_THREADS correctly set to 1.
  | Maximum stacksize for task 0: unlimited
  | Maximum stacksize for task 1: unlimited
  | Maximum stacksize for task 2: unlimited
  | Maximum stacksize for task 3: unlimited
  | Maximum stacksize for task 4: unlimited
  | Maximum stacksize for task 5: unlimited
  | Maximum stacksize for task 6: unlimited
  | Maximum stacksize for task 7: unlimited
  | Maximum stacksize for task 8: unlimited
  | Maximum stacksize for task 9: unlimited
  | Maximum stacksize for task 10: unlimited
  | Maximum stacksize for task 11: unlimited
  | Maximum stacksize for task 12: unlimited
  | Maximum stacksize for task 13: unlimited
  | Maximum stacksize for task 14: unlimited
  | Maximum stacksize for task 15: unlimited
  | Maximum stacksize for task 16: unlimited
  | Maximum stacksize for task 17: unlimited
  | Maximum stacksize for task 18: unlimited
  | Maximum stacksize for task 19: unlimited
  | Maximum stacksize for task 20: unlimited
  | Maximum stacksize for task 21: unlimited
  | Maximum stacksize for task 22: unlimited
  | Maximum stacksize for task 23: unlimited
  | Maximum stacksize for task 24: unlimited
  | Maximum stacksize for task 25: unlimited
  | Maximum stacksize for task 26: unlimited
  | Maximum stacksize for task 27: unlimited
  | Maximum stacksize for task 28: unlimited
  | Maximum stacksize for task 29: unlimited
  | Maximum stacksize for task 30: unlimited
  | Maximum stacksize for task 31: unlimited
  | Maximum stacksize for task 32: unlimited
  | Maximum stacksize for task 33: unlimited
  | Maximum stacksize for task 34: unlimited
  | Maximum stacksize for task 35: unlimited
  | Maximum stacksize for task 36: unlimited
  | Maximum stacksize for task 37: unlimited
  | Maximum stacksize for task 38: unlimited
  | Maximum stacksize for task 39: unlimited
  | Maximum stacksize for task 40: unlimited
  | Maximum stacksize for task 41: unlimited
  | Maximum stacksize for task 42: unlimited
  | Maximum stacksize for task 43: unlimited
  | Maximum stacksize for task 44: unlimited
  | Maximum stacksize for task 45: unlimited
  | Maximum stacksize for task 46: unlimited
  | Maximum stacksize for task 47: unlimited
  | Maximum stacksize for task 48: unlimited
  | Maximum stacksize for task 49: unlimited
  | Maximum stacksize for task 50: unlimited
  | Maximum stacksize for task 51: unlimited
  | Maximum stacksize for task 52: unlimited
  | Maximum stacksize for task 53: unlimited
  | Maximum stacksize for task 54: unlimited
  | Maximum stacksize for task 55: unlimited
  | Maximum stacksize for task 56: unlimited
  | Maximum stacksize for task 57: unlimited
  | Maximum stacksize for task 58: unlimited
  | Maximum stacksize for task 59: unlimited
  | Maximum stacksize for task 60: unlimited
  | Maximum stacksize for task 61: unlimited
  | Maximum stacksize for task 62: unlimited
  | Maximum stacksize for task 63: unlimited
  | Maximum stacksize for task 64: unlimited
  | Maximum stacksize for task 65: unlimited
  | Maximum stacksize for task 66: unlimited
  | Maximum stacksize for task 67: unlimited
  | Maximum stacksize for task 68: unlimited
  | Maximum stacksize for task 69: unlimited
  | Maximum stacksize for task 70: unlimited
  | Maximum stacksize for task 71: unlimited
  | Maximum stacksize for task 72: unlimited
  | Maximum stacksize for task 73: unlimited
  | Maximum stacksize for task 74: unlimited
  | Maximum stacksize for task 75: unlimited
  | Maximum stacksize for task 76: unlimited
  | Maximum stacksize for task 77: unlimited
  | Maximum stacksize for task 78: unlimited
  | Maximum stacksize for task 79: unlimited
  | Maximum stacksize for task 80: unlimited
  | Maximum stacksize for task 81: unlimited
  | Maximum stacksize for task 82: unlimited
  | Maximum stacksize for task 83: unlimited
  | Maximum stacksize for task 84: unlimited
  | Maximum stacksize for task 85: unlimited
  | Maximum stacksize for task 86: unlimited
  | Maximum stacksize for task 87: unlimited
  | Maximum stacksize for task 88: unlimited
  | Maximum stacksize for task 89: unlimited
  | Maximum stacksize for task 90: unlimited
  | Maximum stacksize for task 91: unlimited
  | Maximum stacksize for task 92: unlimited
  | Maximum stacksize for task 93: unlimited
  | Maximum stacksize for task 94: unlimited
  | Maximum stacksize for task 95: unlimited
  | Maximum stacksize for task 96: unlimited
  | Maximum stacksize for task 97: unlimited
  | Maximum stacksize for task 98: unlimited
  | Maximum stacksize for task 99: unlimited
  | Maximum stacksize for task 100: unlimited
  | Maximum stacksize for task 101: unlimited
  | Maximum stacksize for task 102: unlimited
  | Maximum stacksize for task 103: unlimited
  | Maximum stacksize for task 104: unlimited
  | Maximum stacksize for task 105: unlimited
  | Maximum stacksize for task 106: unlimited
  | Maximum stacksize for task 107: unlimited
  | Maximum stacksize for task 108: unlimited
  | Maximum stacksize for task 109: unlimited
  | Maximum stacksize for task 110: unlimited
  | Maximum stacksize for task 111: unlimited
  | Maximum stacksize for task 112: unlimited
  | Maximum stacksize for task 113: unlimited
  | Maximum stacksize for task 114: unlimited
  | Maximum stacksize for task 115: unlimited
  | Maximum stacksize for task 116: unlimited
  | Maximum stacksize for task 117: unlimited
  | Maximum stacksize for task 118: unlimited
  | Maximum stacksize for task 119: unlimited
  | Maximum stacksize for task 120: unlimited
  | Maximum stacksize for task 121: unlimited
  | Maximum stacksize for task 122: unlimited
  | Maximum stacksize for task 123: unlimited
  | Maximum stacksize for task 124: unlimited
  | Maximum stacksize for task 125: unlimited
  | Maximum stacksize for task 126: unlimited
  | Maximum stacksize for task 127: unlimited
  | Maximum stacksize for task 128: unlimited
  | Maximum stacksize for task 129: unlimited
  | Maximum stacksize for task 130: unlimited
  | Maximum stacksize for task 131: unlimited
  | Maximum stacksize for task 132: unlimited
  | Maximum stacksize for task 133: unlimited
  | Maximum stacksize for task 134: unlimited
  | Maximum stacksize for task 135: unlimited
  | Maximum stacksize for task 136: unlimited
  | Maximum stacksize for task 137: unlimited
  | Maximum stacksize for task 138: unlimited
  | Maximum stacksize for task 139: unlimited
  | Maximum stacksize for task 140: unlimited
  | Maximum stacksize for task 141: unlimited
  | Maximum stacksize for task 142: unlimited
  | Maximum stacksize for task 143: unlimited
  | Maximum stacksize for task 144: unlimited
  | Maximum stacksize for task 145: unlimited
  | Maximum stacksize for task 146: unlimited
  | Maximum stacksize for task 147: unlimited
  | Maximum stacksize for task 148: unlimited
  | Maximum stacksize for task 149: unlimited
  | Maximum stacksize for task 150: unlimited
  | Maximum stacksize for task 151: unlimited
  | Maximum stacksize for task 152: unlimited
  | Maximum stacksize for task 153: unlimited
  | Maximum stacksize for task 154: unlimited
  | Maximum stacksize for task 155: unlimited
  | Maximum stacksize for task 156: unlimited
  | Maximum stacksize for task 157: unlimited
  | Maximum stacksize for task 158: unlimited
  | Maximum stacksize for task 159: unlimited
  | Maximum stacksize for task 160: unlimited
  | Maximum stacksize for task 161: unlimited
  | Maximum stacksize for task 162: unlimited
  | Maximum stacksize for task 163: unlimited
  | Maximum stacksize for task 164: unlimited
  | Maximum stacksize for task 165: unlimited
  | Maximum stacksize for task 166: unlimited
  | Maximum stacksize for task 167: unlimited
  | Maximum stacksize for task 168: unlimited
  | Maximum stacksize for task 169: unlimited
  | Maximum stacksize for task 170: unlimited
  | Maximum stacksize for task 171: unlimited
  | Maximum stacksize for task 172: unlimited
  | Maximum stacksize for task 173: unlimited
  | Maximum stacksize for task 174: unlimited
  | Maximum stacksize for task 175: unlimited
  | Maximum stacksize for task 176: unlimited
  | Maximum stacksize for task 177: unlimited
  | Maximum stacksize for task 178: unlimited
  | Maximum stacksize for task 179: unlimited
  | Maximum stacksize for task 180: unlimited
  | Maximum stacksize for task 181: unlimited
  | Maximum stacksize for task 182: unlimited
  | Maximum stacksize for task 183: unlimited
  | Maximum stacksize for task 184: unlimited
  | Maximum stacksize for task 185: unlimited
  | Maximum stacksize for task 186: unlimited
  | Maximum stacksize for task 187: unlimited
  | Maximum stacksize for task 188: unlimited
  | Maximum stacksize for task 189: unlimited
  | Maximum stacksize for task 190: unlimited
  | Maximum stacksize for task 191: unlimited
  | Current stacksize for task 0: unlimited
  | Current stacksize for task 1: unlimited
  | Current stacksize for task 2: unlimited
  | Current stacksize for task 3: unlimited
  | Current stacksize for task 4: unlimited
  | Current stacksize for task 5: unlimited
  | Current stacksize for task 6: unlimited
  | Current stacksize for task 7: unlimited
  | Current stacksize for task 8: unlimited
  | Current stacksize for task 9: unlimited
  | Current stacksize for task 10: unlimited
  | Current stacksize for task 11: unlimited
  | Current stacksize for task 12: unlimited
  | Current stacksize for task 13: unlimited
  | Current stacksize for task 14: unlimited
  | Current stacksize for task 15: unlimited
  | Current stacksize for task 16: unlimited
  | Current stacksize for task 17: unlimited
  | Current stacksize for task 18: unlimited
  | Current stacksize for task 19: unlimited
  | Current stacksize for task 20: unlimited
  | Current stacksize for task 21: unlimited
  | Current stacksize for task 22: unlimited
  | Current stacksize for task 23: unlimited
  | Current stacksize for task 24: unlimited
  | Current stacksize for task 25: unlimited
  | Current stacksize for task 26: unlimited
  | Current stacksize for task 27: unlimited
  | Current stacksize for task 28: unlimited
  | Current stacksize for task 29: unlimited
  | Current stacksize for task 30: unlimited
  | Current stacksize for task 31: unlimited
  | Current stacksize for task 32: unlimited
  | Current stacksize for task 33: unlimited
  | Current stacksize for task 34: unlimited
  | Current stacksize for task 35: unlimited
  | Current stacksize for task 36: unlimited
  | Current stacksize for task 37: unlimited
  | Current stacksize for task 38: unlimited
  | Current stacksize for task 39: unlimited
  | Current stacksize for task 40: unlimited
  | Current stacksize for task 41: unlimited
  | Current stacksize for task 42: unlimited
  | Current stacksize for task 43: unlimited
  | Current stacksize for task 44: unlimited
  | Current stacksize for task 45: unlimited
  | Current stacksize for task 46: unlimited
  | Current stacksize for task 47: unlimited
  | Current stacksize for task 48: unlimited
  | Current stacksize for task 49: unlimited
  | Current stacksize for task 50: unlimited
  | Current stacksize for task 51: unlimited
  | Current stacksize for task 52: unlimited
  | Current stacksize for task 53: unlimited
  | Current stacksize for task 54: unlimited
  | Current stacksize for task 55: unlimited
  | Current stacksize for task 56: unlimited
  | Current stacksize for task 57: unlimited
  | Current stacksize for task 58: unlimited
  | Current stacksize for task 59: unlimited
  | Current stacksize for task 60: unlimited
  | Current stacksize for task 61: unlimited
  | Current stacksize for task 62: unlimited
  | Current stacksize for task 63: unlimited
  | Current stacksize for task 64: unlimited
  | Current stacksize for task 65: unlimited
  | Current stacksize for task 66: unlimited
  | Current stacksize for task 67: unlimited
  | Current stacksize for task 68: unlimited
  | Current stacksize for task 69: unlimited
  | Current stacksize for task 70: unlimited
  | Current stacksize for task 71: unlimited
  | Current stacksize for task 72: unlimited
  | Current stacksize for task 73: unlimited
  | Current stacksize for task 74: unlimited
  | Current stacksize for task 75: unlimited
  | Current stacksize for task 76: unlimited
  | Current stacksize for task 77: unlimited
  | Current stacksize for task 78: unlimited
  | Current stacksize for task 79: unlimited
  | Current stacksize for task 80: unlimited
  | Current stacksize for task 81: unlimited
  | Current stacksize for task 82: unlimited
  | Current stacksize for task 83: unlimited
  | Current stacksize for task 84: unlimited
  | Current stacksize for task 85: unlimited
  | Current stacksize for task 86: unlimited
  | Current stacksize for task 87: unlimited
  | Current stacksize for task 88: unlimited
  | Current stacksize for task 89: unlimited
  | Current stacksize for task 90: unlimited
  | Current stacksize for task 91: unlimited
  | Current stacksize for task 92: unlimited
  | Current stacksize for task 93: unlimited
  | Current stacksize for task 94: unlimited
  | Current stacksize for task 95: unlimited
  | Current stacksize for task 96: unlimited
  | Current stacksize for task 97: unlimited
  | Current stacksize for task 98: unlimited
  | Current stacksize for task 99: unlimited
  | Current stacksize for task 100: unlimited
  | Current stacksize for task 101: unlimited
  | Current stacksize for task 102: unlimited
  | Current stacksize for task 103: unlimited
  | Current stacksize for task 104: unlimited
  | Current stacksize for task 105: unlimited
  | Current stacksize for task 106: unlimited
  | Current stacksize for task 107: unlimited
  | Current stacksize for task 108: unlimited
  | Current stacksize for task 109: unlimited
  | Current stacksize for task 110: unlimited
  | Current stacksize for task 111: unlimited
  | Current stacksize for task 112: unlimited
  | Current stacksize for task 113: unlimited
  | Current stacksize for task 114: unlimited
  | Current stacksize for task 115: unlimited
  | Current stacksize for task 116: unlimited
  | Current stacksize for task 117: unlimited
  | Current stacksize for task 118: unlimited
  | Current stacksize for task 119: unlimited
  | Current stacksize for task 120: unlimited
  | Current stacksize for task 121: unlimited
  | Current stacksize for task 122: unlimited
  | Current stacksize for task 123: unlimited
  | Current stacksize for task 124: unlimited
  | Current stacksize for task 125: unlimited
  | Current stacksize for task 126: unlimited
  | Current stacksize for task 127: unlimited
  | Current stacksize for task 128: unlimited
  | Current stacksize for task 129: unlimited
  | Current stacksize for task 130: unlimited
  | Current stacksize for task 131: unlimited
  | Current stacksize for task 132: unlimited
  | Current stacksize for task 133: unlimited
  | Current stacksize for task 134: unlimited
  | Current stacksize for task 135: unlimited
  | Current stacksize for task 136: unlimited
  | Current stacksize for task 137: unlimited
  | Current stacksize for task 138: unlimited
  | Current stacksize for task 139: unlimited
  | Current stacksize for task 140: unlimited
  | Current stacksize for task 141: unlimited
  | Current stacksize for task 142: unlimited
  | Current stacksize for task 143: unlimited
  | Current stacksize for task 144: unlimited
  | Current stacksize for task 145: unlimited
  | Current stacksize for task 146: unlimited
  | Current stacksize for task 147: unlimited
  | Current stacksize for task 148: unlimited
  | Current stacksize for task 149: unlimited
  | Current stacksize for task 150: unlimited
  | Current stacksize for task 151: unlimited
  | Current stacksize for task 152: unlimited
  | Current stacksize for task 153: unlimited
  | Current stacksize for task 154: unlimited
  | Current stacksize for task 155: unlimited
  | Current stacksize for task 156: unlimited
  | Current stacksize for task 157: unlimited
  | Current stacksize for task 158: unlimited
  | Current stacksize for task 159: unlimited
  | Current stacksize for task 160: unlimited
  | Current stacksize for task 161: unlimited
  | Current stacksize for task 162: unlimited
  | Current stacksize for task 163: unlimited
  | Current stacksize for task 164: unlimited
  | Current stacksize for task 165: unlimited
  | Current stacksize for task 166: unlimited
  | Current stacksize for task 167: unlimited
  | Current stacksize for task 168: unlimited
  | Current stacksize for task 169: unlimited
  | Current stacksize for task 170: unlimited
  | Current stacksize for task 171: unlimited
  | Current stacksize for task 172: unlimited
  | Current stacksize for task 173: unlimited
  | Current stacksize for task 174: unlimited
  | Current stacksize for task 175: unlimited
  | Current stacksize for task 176: unlimited
  | Current stacksize for task 177: unlimited
  | Current stacksize for task 178: unlimited
  | Current stacksize for task 179: unlimited
  | Current stacksize for task 180: unlimited
  | Current stacksize for task 181: unlimited
  | Current stacksize for task 182: unlimited
  | Current stacksize for task 183: unlimited
  | Current stacksize for task 184: unlimited
  | Current stacksize for task 185: unlimited
  | Current stacksize for task 186: unlimited
  | Current stacksize for task 187: unlimited
  | Current stacksize for task 188: unlimited
  | Current stacksize for task 189: unlimited
  | Current stacksize for task 190: unlimited
  | Current stacksize for task 191: unlimited
  | Checking for scalapack...
  | Testing pdtran()...
  | All pdtran() tests passed.

  Obtaining array dimensions for all initial allocations:
  
  -----------------------------------------------------------------------
  Parsing control.in (first pass over file, find array dimensions only).
  The contents of control.in will be repeated verbatim below
  unless switched off by setting 'verbatim_writeout .false.' .
  in the first line of control.in .
  -----------------------------------------------------------------------
  
  #===============================================================================
  # FHI-aims file: ./control.in
  # Created using the Atomic Simulation Environment (ASE)
  # Wed Aug  5 14:09:14 2020
  #===============================================================================
  xc                                 pw-lda
  k_grid                             2 2 2
  sc_accuracy_rho                    1e-06
  relativistic                       atomic_zora scalar
  compensate_multipole_errors        False
  output_level                       MD_light
  compute_forces                     .true.
  use_pimd_wrapper                   localhost 10011
  #===============================================================================
  
  ################################################################################
  #
  #  FHI-aims code project
  #  VB, Fritz-Haber Institut, 2009
  #
  #  Suggested "light" defaults for Si atom (to be pasted into control.in file)
  #  Be sure to double-check any results obtained with these settings for post-processing,
  #  e.g., with the "tight" defaults and larger basis sets.
  #
  ################################################################################
    species        Si
  #     global species definitions
      nucleus             14
      mass                28.0855
  #
      l_hartree           4
  #
      cut_pot             3.5          1.5  1.0
      basis_dep_cutoff    1e-4
  #
      radial_base         42 5.0
      radial_multiplier   1
      angular_grids       specified
        division   0.5866   50
        division   0.9616  110
        division   1.2249  194
        division   1.3795  302
  #      division   1.4810  434
  #      division   1.5529  590
  #      division   1.6284  770
  #      division   1.7077  974
  #      division   2.4068 1202
  #      outer_grid   974
        outer_grid 302
  ################################################################################
  #
  #  Definition of "minimal" basis
  #
  ################################################################################
  #     valence basis states
      valence      3  s   2.
      valence      3  p   2.
  #     ion occupancy
      ion_occ      3  s   1.
      ion_occ      3  p   1.
  ################################################################################
  #
  #  Suggested additional basis functions. For production calculations,
  #  uncomment them one after another (the most important basis functions are
  #  listed first).
  #
  #  Constructed for dimers: 1.75 A, 2.0 A, 2.25 A, 2.75 A, 3.75 A
  #
  ################################################################################
  #  "First tier" - improvements: -571.96 meV to -37.03 meV
       hydro 3 d 4.2
       hydro 2 p 1.4
  #     hydro 4 f 6.2
       ionic 3 s auto
  #  "Second tier" - improvements: -16.76 meV to -3.03 meV
  #     hydro 3 d 9
  #     hydro 5 g 9.4
  #     hydro 4 p 4
  #     hydro 1 s 0.65
  #  "Third tier" - improvements: -3.89 meV to -0.60 meV
  #     ionic 3 d auto
  #     hydro 3 s 2.6
  #     hydro 4 f 8.4
  #     hydro 3 d 3.4
  #     hydro 3 p 7.8
  #  "Fourth tier" - improvements: -0.33 meV to -0.11 meV
  #     hydro 2 p 1.6
  #     hydro 5 g 10.8
  #     hydro 5 f 11.2
  #     hydro 3 d 1
  #     hydro 4 s 4.5
  #  Further basis functions that fell out of the optimization - noise
  #  level... < -0.08 meV
  #     hydro 4 d 6.6
  #     hydro 5 g 16.4
  #     hydro 4 d 9
  
  -----------------------------------------------------------------------
  Completed first pass over input file control.in .
  -----------------------------------------------------------------------
  
  
  -----------------------------------------------------------------------
  Parsing geometry.in (first pass over file, find array dimensions only).
  The contents of geometry.in will be repeated verbatim below
  unless switched off by setting 'verbatim_writeout .false.' .
  in the first line of geometry.in .
  -----------------------------------------------------------------------
  
  #=======================================================
  # FHI-aims file: ./geometry.in
  # Created using the Atomic Simulation Environment (ASE)
  # Wed Aug  5 14:09:14 2020
  #=======================================================
  lattice_vector 16.2555165440459994 -0.0000000000719992 0.0000000000660025
  lattice_vector -0.0000000000719992 16.2555163174499988 0.0000000000119975
  lattice_vector 0.0000000000660004 0.0000000000120009 16.2555163176479986
  atom_frac 0.0006151757775710 0.0000000000006667 0.9999999999965000 Si
  atom_frac 0.0000000000018333 0.1666666666673333 0.1666666666631666 Si
  atom_frac 0.0000000000018333 0.3333333333340000 0.3333333333298333 Si
  atom_frac 0.0000000000018333 0.5000000000006667 0.4999999999964999 Si
  atom_frac 0.0000000000018333 0.6666666666673335 0.6666666666631664 Si
  atom_frac 0.0000000000018333 0.8333333333339999 0.8333333333298333 Si
  atom_frac 0.1666666666685000 0.0000000000006667 0.1666666666631667 Si
  atom_frac 0.1666666666685000 0.1666666666673333 0.3333333333298333 Si
  atom_frac 0.1666666666684999 0.3333333333340001 0.4999999999965000 Si
  atom_frac 0.1666666666684999 0.5000000000006668 0.6666666666631664 Si
  atom_frac 0.1666666666684999 0.6666666666673333 0.8333333333298333 Si
  atom_frac 0.1666666666684999 0.8333333333339999 0.9999999999965000 Si
  atom_frac 0.3333333333351666 0.0000000000006667 0.3333333333298333 Si
  atom_frac 0.3333333333351666 0.1666666666673334 0.4999999999965000 Si
  atom_frac 0.3333333333351667 0.3333333333340000 0.6666666666631664 Si
  atom_frac 0.3333333333351666 0.5000000000006667 0.8333333333298333 Si
  atom_frac 0.3333333333351666 0.6666666666673334 0.9999999999964998 Si
  atom_frac 0.3333333333351666 0.8333333333340002 0.1666666666631666 Si
  atom_frac 0.5000000000018333 0.0000000000006667 0.4999999999964999 Si
  atom_frac 0.5000000000018332 0.1666666666673333 0.6666666666631663 Si
  atom_frac 0.5000000000018331 0.3333333333340001 0.8333333333298333 Si
  atom_frac 0.5000000000018332 0.5000000000006667 0.9999999999964998 Si
  atom_frac 0.5000000000018332 0.6666666666673335 0.1666666666631664 Si
  atom_frac 0.5000000000018332 0.8333333333339998 0.3333333333298332 Si
  atom_frac 0.6666666666684997 0.0000000000006667 0.6666666666631663 Si
  atom_frac 0.6666666666684997 0.1666666666673333 0.8333333333298332 Si
  atom_frac 0.6666666666684997 0.3333333333340001 0.9999999999964998 Si
  atom_frac 0.6666666666684997 0.5000000000006668 0.1666666666631666 Si
  atom_frac 0.6666666666684998 0.6666666666673332 0.3333333333298332 Si
  atom_frac 0.6666666666684997 0.8333333333339999 0.4999999999964997 Si
  atom_frac 0.8333333333351666 0.0000000000006667 0.8333333333298333 Si
  atom_frac 0.8333333333351667 0.1666666666673333 0.9999999999964998 Si
  atom_frac 0.8333333333351666 0.3333333333339999 0.1666666666631666 Si
  atom_frac 0.8333333333351667 0.5000000000006666 0.3333333333298332 Si
  atom_frac 0.8333333333351667 0.6666666666673334 0.4999999999964999 Si
  atom_frac 0.8333333333351666 0.8333333333340002 0.6666666666631664 Si
  atom_frac 0.1666666666685000 0.1666666666673333 0.9999999999965000 Si
  atom_frac 0.1666666666684999 0.3333333333340001 0.1666666666631666 Si
  atom_frac 0.1666666666685000 0.5000000000006667 0.3333333333298333 Si
  atom_frac 0.1666666666684999 0.6666666666673333 0.4999999999964999 Si
  atom_frac 0.1666666666685000 0.8333333333339999 0.6666666666631667 Si
  atom_frac 0.1666666666684999 0.0000000000006666 0.8333333333298331 Si
  atom_frac 0.3333333333351666 0.1666666666673334 0.1666666666631666 Si
  atom_frac 0.3333333333351667 0.3333333333340000 0.3333333333298333 Si
  atom_frac 0.3333333333351667 0.5000000000006667 0.4999999999965000 Si
  atom_frac 0.3333333333351666 0.6666666666673334 0.6666666666631667 Si
  atom_frac 0.3333333333351667 0.8333333333340002 0.8333333333298331 Si
  atom_frac 0.3333333333351666 0.0000000000006666 0.9999999999964998 Si
  atom_frac 0.5000000000018335 0.1666666666673333 0.3333333333298334 Si
  atom_frac 0.5000000000018332 0.3333333333340001 0.4999999999965000 Si
  atom_frac 0.5000000000018332 0.5000000000006667 0.6666666666631667 Si
  atom_frac 0.5000000000018333 0.6666666666673335 0.8333333333298331 Si
  atom_frac 0.5000000000018333 0.8333333333339999 0.9999999999964998 Si
  atom_frac 0.5000000000018333 0.0000000000006666 0.1666666666631666 Si
  atom_frac 0.6666666666684998 0.1666666666673334 0.4999999999964999 Si
  atom_frac 0.6666666666684996 0.3333333333340001 0.6666666666631665 Si
  atom_frac 0.6666666666684996 0.5000000000006668 0.8333333333298331 Si
  atom_frac 0.6666666666684998 0.6666666666673333 0.9999999999964998 Si
  atom_frac 0.6666666666684997 0.8333333333339999 0.1666666666631664 Si
  atom_frac 0.6666666666684998 0.0000000000006666 0.3333333333298332 Si
  atom_frac 0.8333333333351666 0.1666666666673333 0.6666666666631665 Si
  atom_frac 0.8333333333351663 0.3333333333340000 0.8333333333298329 Si
  atom_frac 0.8333333333351665 0.5000000000006667 0.9999999999964998 Si
  atom_frac 0.8333333333351666 0.6666666666673334 0.1666666666631667 Si
  atom_frac 0.8333333333351666 0.8333333333340001 0.3333333333298332 Si
  atom_frac 0.8333333333351666 0.0000000000006666 0.4999999999964997 Si
  atom_frac 0.0000000000018332 0.1666666666673333 0.8333333333298331 Si
  atom_frac 0.0000000000018332 0.3333333333340000 0.9999999999964998 Si
  atom_frac 0.0000000000018332 0.5000000000006667 0.1666666666631666 Si
  atom_frac 0.0000000000018332 0.6666666666673334 0.3333333333298331 Si
  atom_frac 0.0000000000018332 0.8333333333339999 0.4999999999964999 Si
  atom_frac 0.0000000000018332 0.0000000000006666 0.6666666666631667 Si
  atom_frac 0.3333333333351666 0.3333333333340000 0.9999999999965000 Si
  atom_frac 0.3333333333351666 0.5000000000006666 0.1666666666631667 Si
  atom_frac 0.3333333333351666 0.6666666666673334 0.3333333333298333 Si
  atom_frac 0.3333333333351666 0.8333333333340001 0.4999999999964999 Si
  atom_frac 0.3333333333351666 0.0000000000006666 0.6666666666631667 Si
  atom_frac 0.3333333333351666 0.1666666666673332 0.8333333333298333 Si
  atom_frac 0.5000000000018332 0.3333333333340000 0.1666666666631667 Si
  atom_frac 0.5000000000018333 0.5000000000006666 0.3333333333298333 Si
  atom_frac 0.5000000000018334 0.6666666666673334 0.4999999999964999 Si
  atom_frac 0.5000000000018333 0.8333333333339999 0.6666666666631667 Si
  atom_frac 0.5000000000018332 0.0000000000006666 0.8333333333298333 Si
  atom_frac 0.5000000000018332 0.1666666666673331 0.9999999999964998 Si
  atom_frac 0.6666666666684997 0.3333333333340000 0.3333333333298333 Si
  atom_frac 0.6666666666684997 0.5000000000006666 0.4999999999964999 Si
  atom_frac 0.6666666666684998 0.6666666666673333 0.6666666666631667 Si
  atom_frac 0.6666666666684997 0.8333333333340001 0.8333333333298333 Si
  atom_frac 0.6666666666684997 0.0000000000006666 0.9999999999965000 Si
  atom_frac 0.6666666666684997 0.1666666666673331 0.1666666666631666 Si
  atom_frac 0.8333333333351665 0.3333333333339999 0.4999999999964998 Si
  atom_frac 0.8333333333351663 0.5000000000006666 0.6666666666631665 Si
  atom_frac 0.8333333333351665 0.6666666666673335 0.8333333333298333 Si
  atom_frac 0.8333333333351665 0.8333333333340001 0.9999999999964998 Si
  atom_frac 0.8333333333351663 0.0000000000006666 0.1666666666631664 Si
  atom_frac 0.8333333333351665 0.1666666666673331 0.3333333333298331 Si
  atom_frac 0.0000000000018332 0.3333333333339999 0.6666666666631665 Si
  atom_frac 0.0000000000018332 0.5000000000006667 0.8333333333298332 Si
  atom_frac 0.0000000000018332 0.6666666666673334 0.9999999999965000 Si
  atom_frac 0.0000000000018332 0.8333333333339999 0.1666666666631666 Si
  atom_frac 0.0000000000018332 0.0000000000006666 0.3333333333298332 Si
  atom_frac 0.0000000000018332 0.1666666666673331 0.4999999999964996 Si
  atom_frac 0.1666666666684999 0.3333333333340000 0.8333333333298333 Si
  atom_frac 0.1666666666684999 0.5000000000006666 0.9999999999964998 Si
  atom_frac 0.1666666666684999 0.6666666666673333 0.1666666666631667 Si
  atom_frac 0.1666666666684999 0.8333333333339999 0.3333333333298332 Si
  atom_frac 0.1666666666684999 0.0000000000006666 0.4999999999964998 Si
  atom_frac 0.1666666666684999 0.1666666666673331 0.6666666666631667 Si
  atom_frac 0.0833333333315000 0.0833333333326667 0.0833333333368333 Si
  atom_frac 0.0833333333315000 0.2499999999993333 0.2500000000035000 Si
  atom_frac 0.0833333333315000 0.4166666666659999 0.4166666666701667 Si
  atom_frac 0.0833333333315000 0.5833333333326667 0.5833333333368333 Si
  atom_frac 0.0833333333315000 0.7499999999993335 0.7500000000035001 Si
  atom_frac 0.0833333333314999 0.9166666666660002 0.9166666666701666 Si
  atom_frac 0.2499999999981667 0.0833333333326667 0.2500000000035000 Si
  atom_frac 0.2499999999981667 0.2499999999993333 0.4166666666701667 Si
  atom_frac 0.2499999999981667 0.4166666666660001 0.5833333333368333 Si
  atom_frac 0.2499999999981666 0.5833333333326667 0.7500000000035000 Si
  atom_frac 0.2499999999981666 0.7499999999993334 0.9166666666701665 Si
  atom_frac 0.2499999999981666 0.9166666666660001 0.0833333333368333 Si
  atom_frac 0.4166666666648332 0.0833333333326667 0.4166666666701667 Si
  atom_frac 0.4166666666648332 0.2499999999993334 0.5833333333368333 Si
  atom_frac 0.4166666666648333 0.4166666666660000 0.7500000000035000 Si
  atom_frac 0.4166666666648332 0.5833333333326667 0.9166666666701664 Si
  atom_frac 0.4166666666648332 0.7499999999993333 0.0833333333368333 Si
  atom_frac 0.4166666666648332 0.9166666666660002 0.2500000000035001 Si
  atom_frac 0.5833333333314999 0.0833333333326667 0.5833333333368333 Si
  atom_frac 0.5833333333314999 0.2499999999993333 0.7500000000035000 Si
  atom_frac 0.5833333333315001 0.4166666666659999 0.9166666666701666 Si
  atom_frac 0.5833333333314998 0.5833333333326667 0.0833333333368333 Si
  atom_frac 0.5833333333314999 0.7499999999993335 0.2500000000035001 Si
  atom_frac 0.5833333333314998 0.9166666666660002 0.4166666666701666 Si
  atom_frac 0.7499999999981666 0.0833333333326667 0.7500000000034999 Si
  atom_frac 0.7499999999981667 0.2499999999993333 0.9166666666701665 Si
  atom_frac 0.7499999999981666 0.4166666666660001 0.0833333333368331 Si
  atom_frac 0.7499999999981666 0.5833333333326668 0.2500000000034999 Si
  atom_frac 0.7499999999981665 0.7499999999993334 0.4166666666701666 Si
  atom_frac 0.7499999999981666 0.9166666666660001 0.5833333333368333 Si
  atom_frac 0.9166666666648332 0.0833333333326666 0.9166666666701666 Si
  atom_frac 0.9166666666648331 0.2499999999993334 0.0833333333368333 Si
  atom_frac 0.9166666666648332 0.4166666666660000 0.2500000000034999 Si
  atom_frac 0.9166666666648331 0.5833333333326667 0.4166666666701666 Si
  atom_frac 0.9166666666648331 0.7499999999993333 0.5833333333368333 Si
  atom_frac 0.9166666666648331 0.9166666666660001 0.7500000000034999 Si
  atom_frac 0.2499999999981667 0.2499999999993333 0.0833333333368333 Si
  atom_frac 0.2499999999981666 0.4166666666660000 0.2500000000035000 Si
  atom_frac 0.2499999999981667 0.5833333333326667 0.4166666666701667 Si
  atom_frac 0.2499999999981667 0.7499999999993334 0.5833333333368331 Si
  atom_frac 0.2499999999981666 0.9166666666660001 0.7500000000035001 Si
  atom_frac 0.2499999999981667 0.0833333333326667 0.9166666666701667 Si
  atom_frac 0.4166666666648333 0.2499999999993334 0.2500000000035000 Si
  atom_frac 0.4166666666648333 0.4166666666660001 0.4166666666701667 Si
  atom_frac 0.4166666666648333 0.5833333333326667 0.5833333333368331 Si
  atom_frac 0.4166666666648333 0.7499999999993333 0.7500000000035000 Si
  atom_frac 0.4166666666648332 0.9166666666660001 0.9166666666701667 Si
  atom_frac 0.4166666666648333 0.0833333333326667 0.0833333333368333 Si
  atom_frac 0.5833333333314999 0.2499999999993333 0.4166666666701667 Si
  atom_frac 0.5833333333314999 0.4166666666659999 0.5833333333368333 Si
  atom_frac 0.5833333333314998 0.5833333333326667 0.7500000000034999 Si
  atom_frac 0.5833333333314999 0.7499999999993333 0.9166666666701666 Si
  atom_frac 0.5833333333314998 0.9166666666660003 0.0833333333368333 Si
  atom_frac 0.5833333333314999 0.0833333333326667 0.2500000000035000 Si
  atom_frac 0.7499999999981667 0.2499999999993333 0.5833333333368333 Si
  atom_frac 0.7499999999981666 0.4166666666660000 0.7500000000034999 Si
  atom_frac 0.7499999999981666 0.5833333333326667 0.9166666666701666 Si
  atom_frac 0.7499999999981665 0.7499999999993334 0.0833333333368333 Si
  atom_frac 0.7499999999981666 0.9166666666660001 0.2500000000035000 Si
  atom_frac 0.7499999999981666 0.0833333333326667 0.4166666666701666 Si
  atom_frac 0.9166666666648331 0.2499999999993334 0.7500000000034998 Si
  atom_frac 0.9166666666648331 0.4166666666660000 0.9166666666701665 Si
  atom_frac 0.9166666666648329 0.5833333333326668 0.0833333333368331 Si
  atom_frac 0.9166666666648330 0.7499999999993333 0.2500000000034998 Si
  atom_frac 0.9166666666648330 0.9166666666660001 0.4166666666701666 Si
  atom_frac 0.9166666666648331 0.0833333333326667 0.5833333333368333 Si
  atom_frac 0.0833333333314998 0.2499999999993333 0.9166666666701666 Si
  atom_frac 0.0833333333314998 0.4166666666659999 0.0833333333368333 Si
  atom_frac 0.0833333333314998 0.5833333333326667 0.2500000000034999 Si
  atom_frac 0.0833333333314998 0.7499999999993333 0.4166666666701666 Si
  atom_frac 0.0833333333314999 0.9166666666660003 0.5833333333368332 Si
  atom_frac 0.0833333333314999 0.0833333333326667 0.7500000000034999 Si
  atom_frac 0.4166666666648333 0.4166666666660001 0.0833333333368333 Si
  atom_frac 0.4166666666648334 0.5833333333326668 0.2500000000035000 Si
  atom_frac 0.4166666666648333 0.7499999999993333 0.4166666666701666 Si
  atom_frac 0.4166666666648333 0.9166666666660001 0.5833333333368333 Si
  atom_frac 0.4166666666648333 0.0833333333326667 0.7500000000035001 Si
  atom_frac 0.4166666666648333 0.2499999999993335 0.9166666666701666 Si
  atom_frac 0.5833333333315001 0.4166666666660001 0.2500000000035000 Si
  atom_frac 0.5833333333314999 0.5833333333326667 0.4166666666701666 Si
  atom_frac 0.5833333333315001 0.7499999999993333 0.5833333333368333 Si
  atom_frac 0.5833333333315001 0.9166666666660003 0.7500000000034998 Si
  atom_frac 0.5833333333315001 0.0833333333326667 0.9166666666701666 Si
  atom_frac 0.5833333333314999 0.2499999999993334 0.0833333333368333 Si
  atom_frac 0.7499999999981667 0.4166666666660002 0.4166666666701666 Si
  atom_frac 0.7499999999981667 0.5833333333326667 0.5833333333368333 Si
  atom_frac 0.7499999999981667 0.7499999999993334 0.7500000000035000 Si
  atom_frac 0.7499999999981668 0.9166666666659999 0.9166666666701665 Si
  atom_frac 0.7499999999981666 0.0833333333326667 0.0833333333368333 Si
  atom_frac 0.7499999999981667 0.2499999999993334 0.2500000000035001 Si
  atom_frac 0.9166666666648332 0.4166666666660001 0.5833333333368333 Si
  atom_frac 0.9166666666648331 0.5833333333326668 0.7500000000035000 Si
  atom_frac 0.9166666666648332 0.7499999999993332 0.9166666666701665 Si
  atom_frac 0.9166666666648331 0.9166666666660001 0.0833333333368333 Si
  atom_frac 0.9166666666648331 0.0833333333326667 0.2500000000035001 Si
  atom_frac 0.9166666666648331 0.2499999999993335 0.4166666666701665 Si
  atom_frac 0.0833333333314999 0.4166666666660001 0.7500000000034998 Si
  atom_frac 0.0833333333314998 0.5833333333326666 0.9166666666701664 Si
  atom_frac 0.0833333333314998 0.7499999999993333 0.0833333333368331 Si
  atom_frac 0.0833333333314998 0.9166666666660003 0.2500000000034999 Si
  atom_frac 0.0833333333314999 0.0833333333326667 0.4166666666701666 Si
  atom_frac 0.0833333333314999 0.2499999999993334 0.5833333333368333 Si
  atom_frac 0.2499999999981666 0.4166666666660002 0.9166666666701665 Si
  atom_frac 0.2499999999981666 0.5833333333326667 0.0833333333368333 Si
  atom_frac 0.2499999999981665 0.7499999999993334 0.2500000000034999 Si
  atom_frac 0.2499999999981665 0.9166666666660001 0.4166666666701666 Si
  atom_frac 0.2499999999981666 0.0833333333326667 0.5833333333368333 Si
  atom_frac 0.2499999999981665 0.2499999999993334 0.7500000000034996 Si
  
  -----------------------------------------------------------------------
  Completed first pass over input file geometry.in .
  -----------------------------------------------------------------------
  

  Basic array size parameters:
  | Number of species                 :        1
  | Number of atoms                   :      216
  | Number of lattice vectors         :        3
  | Max. basis fn. angular momentum   :        2
  | Max. atomic/ionic basis occupied n:        3
  | Max. number of basis fn. types    :        3
  | Max. radial fns per species/type  :        5
  | Max. logarithmic grid size        :     1346
  | Max. radial integration grid size :       42
  | Max. angular integration grid size:      302
  | Max. angular grid division number :        8
  | Radial grid for Hartree potential :     1346
  | Number of spin channels           :        1

------------------------------------------------------------
          Reading file control.in.
------------------------------------------------------------
  XC: Using Perdew-Wang parametrisation of Ceperley-Alder LDA.
  Found k-point grid:         2         2         2
  Convergence accuracy of self-consistent charge density:  0.1000E-05
  Scalar relativistic treatment of kinetic energy: on-site free-atom approximation to ZORA.
  Switching off the compensation of charge integration errors on the
  3D integration grid.
  Requested output level: MD_light
  Forces will be computed.
  Using external wrapper (i-PI) for performing (path integral) molecular dynamics
  **Attention: initial geometry.in file will be ignored!
 
  Reading configuration options for species Si                  .
  | Found nuclear charge :  14.0000
  | Found atomic mass :    28.0855000000000      amu
  | Found l_max for Hartree potential  :   4
  | Found cutoff potl. onset [A], width [A], scale factor :    3.50000    1.50000    1.00000
  | Threshold for basis-dependent cutoff potential is   0.100000E-03
  | Found data for basic radial integration grid :    42 points, outermost radius =    5.000 A
  | Found multiplier for basic radial grid :   1
  | Found angular grid specification: user-specified.
  | Specified grid contains     5 separate shells.
  | Check grid settings after all constraints further below.
  | Found free-atom valence shell :  3 s   2.000
  | Found free-atom valence shell :  3 p   2.000
  | Found free-ion valence shell :  3 s   1.000
  | Found free-ion valence shell :  3 p   1.000
  | Found hydrogenic basis function :  3 d   4.200
  | Found hydrogenic basis function :  2 p   1.400
  | Found ionic basis function :  3 s , default cutoff radius.
  Species Si                  : Missing cutoff potential type.
  Defaulting to exp(1/x)/(1-x)^2 type cutoff potential.
  Species Si: No 'logarithmic' tag. Using default grid for free atom:
  | Default logarithmic grid data [bohr] : 0.1000E-03 0.1000E+03 0.1012E+01
  | Will include ionic basis functions of  2.0-fold positive Si                   ion.
  Species Si: On-site basis accuracy parameter (for Gram-Schmidt orthonormalisation) not specified.
  Using default value basis_acc =  0.1000000E-03.
  Species Si                  : Using default innermost maximum threshold i_radial=  2 for radial functions.
  Species Si                  : Default cutoff onset for free atom density etc. : 0.35000000E+01 AA.
  Species Si                  : Basic radial grid will be enhanced according to radial_multiplier =   1, to contain    42 grid points.
 
  Finished reading input file 'control.in'. Consistency checks are next.
 
  MPI_IN_PLACE appears to work with this MPI implementation.
  | Keeping use_mpi_in_place .true. (see manual).
  Target number of points in a grid batch is not set. Defaulting to  100
  Method for grid partitioning is not set. Defaulting to parallel hash+maxmin partitioning.
  Batch size limit is not set. Defaulting to    200
  By default, will store active basis functions for each batch.
  If in need of memory, prune_basis_once .false. can be used to disable this option.
  communication_type for Hartree potential was not specified.
  Defaulting to calc_hartree .
  Defaulting to Pulay charge density mixer.
  Pulay mixer: Number of relevant iterations not set.
  Defaulting to    8 iterations.
  Pulay mixer: Number of initial linear mixing iterations not set.
  Defaulting to    0 iterations.
  Work space size for distributed Hartree potential not set.
  Defaulting to   0.200000E+03 MB.
  Mixing parameter for charge density mixing has not been set.
  Using default: charge_mix_param =     0.0500.
  The mixing parameter will be adjusted in iteration number     2 of the first full s.c.f. cycle only.
  Algorithm-dependent basis array size parameters:
  | n_max_pulay                         :        8
  Maximum number of self-consistency iterations not provided.
  Presetting  1000 iterations.
  Presetting      1001 iterations before the initial mixing cycle
  is restarted anyway using the sc_init_iter criterion / keyword.
  Presetting a factor      1.000 between actual scf density residual
  and density convergence criterion sc_accuracy_rho below which sc_init_iter
  takes no effect.
  Geometry relaxation not requested: no relaxation will be performed.
  Force calculation: scf convergence accuracy of forces not set.
  Defaulting to 'sc_accuracy_forces not_checked'.
  Handling of forces: Unphysical translation and rotation will be removed from forces.
  No accuracy limit for integral partition fn. given. Defaulting to  0.1000E-14.
  No threshold value for u(r) in integrations given. Defaulting to  0.1000E-05.
  No occupation type (smearing scheme) given. Defaulting to Gaussian broadening, width =  0.1000E-01 eV.
  The width will be adjusted in iteration number     2 of the first full s.c.f. cycle only.
  S.C.F. convergence parameters will be adjusted in iteration number     2 of the first full s.c.f. cycle only.
  No accuracy for occupation numbers given. Defaulting to  0.1000E-12.
  No threshold value for occupation numbers given. Defaulting to  0.0000E+00.
  No accuracy for fermi level given. Defaulting to  0.1000E-19.
  Maximum # of iterations to find E_F not set. Defaulting to  200.
  Preferred method for the eigenvalue solver ('KS_method') not specified in 'control.in'.
  Calling BLACS routine to test compilation state
  Since ScaLAPACK support is enabled, defaulting to ELPA (via ELSI).
  Will not use alltoall communication since running on < 1024 CPUs.
  Threshold for basis singularities not set.
  Default threshold for basis singularities:  0.1000E-04
  partition_type (choice of integration weights) for integrals was not specified.
  | Using a version of the partition function of Stratmann and coworkers ('stratmann_sparse').
  | At each grid point, the set of atoms used to build the partition table is smoothly restricted to
  | only those atoms whose free-atom density would be non-zero at that grid point.
  Partitioning for Hartree potential was not defined. Using partition_type for integrals.
  | Adjusted default value of keyword multip_moments_threshold to:       0.10000000E-11
  | This value may affect high angular momentum components of the Hartree potential in periodic systems.
  Spin handling was not defined in control.in. Defaulting to unpolarized case.
  Angular momentum expansion for Kerker preconditioner not set explicitly.
  | Using default value of   0
  No explicit requirement for turning off preconditioner.
  | By default, it will be turned off when the charge convergence reaches
  | sc_accuracy_rho  =   0.100000E-05
  No special mixing parameter while Kerker preconditioner is on.
  Using default: charge_mix_param =     0.0500.
  No q(lm)/r^(l+1) cutoff set for long-range Hartree potential.
  | Using default value of  0.100000E-09 .
  | Verify using the multipole_threshold keyword.
  Defaulting to new monopole extrapolation.
  Density update method: automatic selection selected.
  Using density matrix based charge density update.
  Using density matrix based charge density update.
  Using packed matrix style: index .
  Defaulting to use time-reversal symmetry for k-point grid.
------------------------------------------------------------


------------------------------------------------------------
          Reading geometry description geometry.in.
------------------------------------------------------------
  Input structure read successfully.
  The structure contains      216 atoms,  and a total of       3024.000 electrons.

  Input geometry:
  | Unit cell:
  |       16.25551654       -0.00000000        0.00000000
  |       -0.00000000       16.25551632        0.00000000
  |        0.00000000        0.00000000       16.25551632
  | Atomic structure:
  |       Atom                x [A]            y [A]            z [A]
  |    1: Species Si            0.01000000        0.00000000       16.25551632
  |    2: Species Si            0.00000000        2.70925272        2.70925272
  |    3: Species Si            0.00000000        5.41850544        5.41850544
  |    4: Species Si            0.00000000        8.12775816        8.12775816
  |    5: Species Si            0.00000000       10.83701088       10.83701088
  |    6: Species Si            0.00000000       13.54626360       13.54626360
  |    7: Species Si            2.70925276        0.00000000        2.70925272
  |    8: Species Si            2.70925276        2.70925272        5.41850544
  |    9: Species Si            2.70925276        5.41850544        8.12775816
  |   10: Species Si            2.70925276        8.12775816       10.83701088
  |   11: Species Si            2.70925276       10.83701088       13.54626360
  |   12: Species Si            2.70925276       13.54626360       16.25551632
  |   13: Species Si            5.41850551       -0.00000000        5.41850544
  |   14: Species Si            5.41850551        2.70925272        8.12775816
  |   15: Species Si            5.41850551        5.41850544       10.83701088
  |   16: Species Si            5.41850551        8.12775816       13.54626360
  |   17: Species Si            5.41850551       10.83701088       16.25551632
  |   18: Species Si            5.41850551       13.54626360        2.70925272
  |   19: Species Si            8.12775827       -0.00000000        8.12775816
  |   20: Species Si            8.12775827        2.70925272       10.83701088
  |   21: Species Si            8.12775827        5.41850544       13.54626360
  |   22: Species Si            8.12775827        8.12775816       16.25551632
  |   23: Species Si            8.12775827       10.83701088        2.70925272
  |   24: Species Si            8.12775827       13.54626360        5.41850544
  |   25: Species Si           10.83701103       -0.00000000       10.83701088
  |   26: Species Si           10.83701103        2.70925272       13.54626360
  |   27: Species Si           10.83701103        5.41850544       16.25551632
  |   28: Species Si           10.83701103        8.12775816        2.70925272
  |   29: Species Si           10.83701103       10.83701088        5.41850544
  |   30: Species Si           10.83701103       13.54626360        8.12775816
  |   31: Species Si           13.54626379       -0.00000000       13.54626360
  |   32: Species Si           13.54626379        2.70925272       16.25551632
  |   33: Species Si           13.54626379        5.41850544        2.70925272
  |   34: Species Si           13.54626379        8.12775816        5.41850544
  |   35: Species Si           13.54626379       10.83701088        8.12775816
  |   36: Species Si           13.54626379       13.54626360       10.83701088
  |   37: Species Si            2.70925276        2.70925272       16.25551632
  |   38: Species Si            2.70925276        5.41850544        2.70925272
  |   39: Species Si            2.70925276        8.12775816        5.41850544
  |   40: Species Si            2.70925276       10.83701088        8.12775816
  |   41: Species Si            2.70925276       13.54626360       10.83701088
  |   42: Species Si            2.70925276        0.00000000       13.54626360
  |   43: Species Si            5.41850551        2.70925272        2.70925272
  |   44: Species Si            5.41850551        5.41850544        5.41850544
  |   45: Species Si            5.41850551        8.12775816        8.12775816
  |   46: Species Si            5.41850551       10.83701088       10.83701088
  |   47: Species Si            5.41850551       13.54626360       13.54626360
  |   48: Species Si            5.41850551       -0.00000000       16.25551632
  |   49: Species Si            8.12775827        2.70925272        5.41850544
  |   50: Species Si            8.12775827        5.41850544        8.12775816
  |   51: Species Si            8.12775827        8.12775816       10.83701088
  |   52: Species Si            8.12775827       10.83701088       13.54626360
  |   53: Species Si            8.12775827       13.54626360       16.25551632
  |   54: Species Si            8.12775827       -0.00000000        2.70925272
  |   55: Species Si           10.83701103        2.70925272        8.12775816
  |   56: Species Si           10.83701103        5.41850544       10.83701088
  |   57: Species Si           10.83701103        8.12775816       13.54626360
  |   58: Species Si           10.83701103       10.83701088       16.25551632
  |   59: Species Si           10.83701103       13.54626360        2.70925272
  |   60: Species Si           10.83701103       -0.00000000        5.41850544
  |   61: Species Si           13.54626379        2.70925272       10.83701088
  |   62: Species Si           13.54626379        5.41850544       13.54626360
  |   63: Species Si           13.54626379        8.12775816       16.25551632
  |   64: Species Si           13.54626379       10.83701088        2.70925272
  |   65: Species Si           13.54626379       13.54626360        5.41850544
  |   66: Species Si           13.54626379       -0.00000000        8.12775816
  |   67: Species Si            0.00000000        2.70925272       13.54626360
  |   68: Species Si            0.00000000        5.41850544       16.25551632
  |   69: Species Si            0.00000000        8.12775816        2.70925272
  |   70: Species Si            0.00000000       10.83701088        5.41850544
  |   71: Species Si            0.00000000       13.54626360        8.12775816
  |   72: Species Si            0.00000000        0.00000000       10.83701088
  |   73: Species Si            5.41850551        5.41850544       16.25551632
  |   74: Species Si            5.41850551        8.12775816        2.70925272
  |   75: Species Si            5.41850551       10.83701088        5.41850544
  |   76: Species Si            5.41850551       13.54626360        8.12775816
  |   77: Species Si            5.41850551       -0.00000000       10.83701088
  |   78: Species Si            5.41850551        2.70925272       13.54626360
  |   79: Species Si            8.12775827        5.41850544        2.70925272
  |   80: Species Si            8.12775827        8.12775816        5.41850544
  |   81: Species Si            8.12775827       10.83701088        8.12775816
  |   82: Species Si            8.12775827       13.54626360       10.83701088
  |   83: Species Si            8.12775827       -0.00000000       13.54626360
  |   84: Species Si            8.12775827        2.70925272       16.25551632
  |   85: Species Si           10.83701103        5.41850544        5.41850544
  |   86: Species Si           10.83701103        8.12775816        8.12775816
  |   87: Species Si           10.83701103       10.83701088       10.83701088
  |   88: Species Si           10.83701103       13.54626360       13.54626360
  |   89: Species Si           10.83701103       -0.00000000       16.25551632
  |   90: Species Si           10.83701103        2.70925272        2.70925272
  |   91: Species Si           13.54626379        5.41850544        8.12775816
  |   92: Species Si           13.54626379        8.12775816       10.83701088
  |   93: Species Si           13.54626379       10.83701088       13.54626360
  |   94: Species Si           13.54626379       13.54626360       16.25551632
  |   95: Species Si           13.54626379       -0.00000000        2.70925272
  |   96: Species Si           13.54626379        2.70925272        5.41850544
  |   97: Species Si            0.00000000        5.41850544       10.83701088
  |   98: Species Si            0.00000000        8.12775816       13.54626360
  |   99: Species Si            0.00000000       10.83701088       16.25551632
  |  100: Species Si           -0.00000000       13.54626360        2.70925272
  |  101: Species Si            0.00000000        0.00000000        5.41850544
  |  102: Species Si            0.00000000        2.70925272        8.12775816
  |  103: Species Si            2.70925276        5.41850544       13.54626360
  |  104: Species Si            2.70925276        8.12775816       16.25551632
  |  105: Species Si            2.70925276       10.83701088        2.70925272
  |  106: Species Si            2.70925276       13.54626360        5.41850544
  |  107: Species Si            2.70925276        0.00000000        8.12775816
  |  108: Species Si            2.70925276        2.70925272       10.83701088
  |  109: Species Si            1.35462638        1.35462636        1.35462636
  |  110: Species Si            1.35462638        4.06387908        4.06387908
  |  111: Species Si            1.35462638        6.77313180        6.77313180
  |  112: Species Si            1.35462638        9.48238452        9.48238452
  |  113: Species Si            1.35462638       12.19163724       12.19163724
  |  114: Species Si            1.35462638       14.90088996       14.90088996
  |  115: Species Si            4.06387914        1.35462636        4.06387908
  |  116: Species Si            4.06387914        4.06387908        6.77313180
  |  117: Species Si            4.06387914        6.77313180        9.48238452
  |  118: Species Si            4.06387914        9.48238452       12.19163724
  |  119: Species Si            4.06387914       12.19163724       14.90088996
  |  120: Species Si            4.06387914       14.90088996        1.35462636
  |  121: Species Si            6.77313189        1.35462636        6.77313180
  |  122: Species Si            6.77313189        4.06387908        9.48238452
  |  123: Species Si            6.77313189        6.77313180       12.19163724
  |  124: Species Si            6.77313189        9.48238452       14.90088996
  |  125: Species Si            6.77313189       12.19163724        1.35462636
  |  126: Species Si            6.77313189       14.90088996        4.06387908
  |  127: Species Si            9.48238465        1.35462636        9.48238452
  |  128: Species Si            9.48238465        4.06387908       12.19163724
  |  129: Species Si            9.48238465        6.77313180       14.90088996
  |  130: Species Si            9.48238465        9.48238452        1.35462636
  |  131: Species Si            9.48238465       12.19163724        4.06387908
  |  132: Species Si            9.48238465       14.90088996        6.77313180
  |  133: Species Si           12.19163741        1.35462636       12.19163724
  |  134: Species Si           12.19163741        4.06387908       14.90088996
  |  135: Species Si           12.19163741        6.77313180        1.35462636
  |  136: Species Si           12.19163741        9.48238452        4.06387908
  |  137: Species Si           12.19163741       12.19163724        6.77313180
  |  138: Species Si           12.19163741       14.90088996        9.48238452
  |  139: Species Si           14.90089017        1.35462636       14.90088996
  |  140: Species Si           14.90089017        4.06387908        1.35462636
  |  141: Species Si           14.90089017        6.77313180        4.06387908
  |  142: Species Si           14.90089017        9.48238452        6.77313180
  |  143: Species Si           14.90089017       12.19163724        9.48238452
  |  144: Species Si           14.90089017       14.90088996       12.19163724
  |  145: Species Si            4.06387914        4.06387908        1.35462636
  |  146: Species Si            4.06387914        6.77313180        4.06387908
  |  147: Species Si            4.06387914        9.48238452        6.77313180
  |  148: Species Si            4.06387914       12.19163724        9.48238452
  |  149: Species Si            4.06387914       14.90088996       12.19163724
  |  150: Species Si            4.06387914        1.35462636       14.90088996
  |  151: Species Si            6.77313189        4.06387908        4.06387908
  |  152: Species Si            6.77313189        6.77313180        6.77313180
  |  153: Species Si            6.77313189        9.48238452        9.48238452
  |  154: Species Si            6.77313189       12.19163724       12.19163724
  |  155: Species Si            6.77313189       14.90088996       14.90088996
  |  156: Species Si            6.77313189        1.35462636        1.35462636
  |  157: Species Si            9.48238465        4.06387908        6.77313180
  |  158: Species Si            9.48238465        6.77313180        9.48238452
  |  159: Species Si            9.48238465        9.48238452       12.19163724
  |  160: Species Si            9.48238465       12.19163724       14.90088996
  |  161: Species Si            9.48238465       14.90088996        1.35462636
  |  162: Species Si            9.48238465        1.35462636        4.06387908
  |  163: Species Si           12.19163741        4.06387908        9.48238452
  |  164: Species Si           12.19163741        6.77313180       12.19163724
  |  165: Species Si           12.19163741        9.48238452       14.90088996
  |  166: Species Si           12.19163741       12.19163724        1.35462636
  |  167: Species Si           12.19163741       14.90088996        4.06387908
  |  168: Species Si           12.19163741        1.35462636        6.77313180
  |  169: Species Si           14.90089017        4.06387908       12.19163724
  |  170: Species Si           14.90089017        6.77313180       14.90088996
  |  171: Species Si           14.90089017        9.48238452        1.35462636
  |  172: Species Si           14.90089017       12.19163724        4.06387908
  |  173: Species Si           14.90089017       14.90088996        6.77313180
  |  174: Species Si           14.90089017        1.35462636        9.48238452
  |  175: Species Si            1.35462638        4.06387908       14.90088996
  |  176: Species Si            1.35462638        6.77313180        1.35462636
  |  177: Species Si            1.35462638        9.48238452        4.06387908
  |  178: Species Si            1.35462638       12.19163724        6.77313180
  |  179: Species Si            1.35462638       14.90088996        9.48238452
  |  180: Species Si            1.35462638        1.35462636       12.19163724
  |  181: Species Si            6.77313189        6.77313180        1.35462636
  |  182: Species Si            6.77313189        9.48238452        4.06387908
  |  183: Species Si            6.77313189       12.19163724        6.77313180
  |  184: Species Si            6.77313189       14.90088996        9.48238452
  |  185: Species Si            6.77313189        1.35462636       12.19163724
  |  186: Species Si            6.77313189        4.06387908       14.90088996
  |  187: Species Si            9.48238465        6.77313180        4.06387908
  |  188: Species Si            9.48238465        9.48238452        6.77313180
  |  189: Species Si            9.48238465       12.19163724        9.48238452
  |  190: Species Si            9.48238465       14.90088996       12.19163724
  |  191: Species Si            9.48238465        1.35462636       14.90088996
  |  192: Species Si            9.48238465        4.06387908        1.35462636
  |  193: Species Si           12.19163741        6.77313180        6.77313180
  |  194: Species Si           12.19163741        9.48238452        9.48238452
  |  195: Species Si           12.19163741       12.19163724       12.19163724
  |  196: Species Si           12.19163741       14.90088996       14.90088996
  |  197: Species Si           12.19163741        1.35462636        1.35462636
  |  198: Species Si           12.19163741        4.06387908        4.06387908
  |  199: Species Si           14.90089017        6.77313180        9.48238452
  |  200: Species Si           14.90089017        9.48238452       12.19163724
  |  201: Species Si           14.90089017       12.19163724       14.90088996
  |  202: Species Si           14.90089017       14.90088996        1.35462636
  |  203: Species Si           14.90089017        1.35462636        4.06387908
  |  204: Species Si           14.90089017        4.06387908        6.77313180
  |  205: Species Si            1.35462638        6.77313180       12.19163724
  |  206: Species Si            1.35462638        9.48238452       14.90088996
  |  207: Species Si            1.35462638       12.19163724        1.35462636
  |  208: Species Si            1.35462638       14.90088996        4.06387908
  |  209: Species Si            1.35462638        1.35462636        6.77313180
  |  210: Species Si            1.35462638        4.06387908        9.48238452
  |  211: Species Si            4.06387914        6.77313180       14.90088996
  |  212: Species Si            4.06387914        9.48238452        1.35462636
  |  213: Species Si            4.06387914       12.19163724        4.06387908
  |  214: Species Si            4.06387914       14.90088996        6.77313180
  |  215: Species Si            4.06387914        1.35462636        9.48238452
  |  216: Species Si            4.06387914        4.06387908       12.19163724

  Lattice parameters for 3D lattice (in Angstroms) :    16.255517   16.255516   16.255516
  Angle(s) between unit vectors (in degrees)       :    90.000000   90.000000   90.000000

  | The smallest distance between any two atoms is         2.34052243 AA.
  | The first atom of this pair is atom number                      1 .
  | The second atom of this pair is atom number                   114 .
  | Wigner-Seitz cell of the first atom image           0     0     0 .
  | (The Wigner-Seitz cell of the second atom is 0 0 0  by definition.)

  Symmetry information by spglib:
  | Precision set to  0.1E-04
  | Number of Operations  : 4
  | Space group           : 35
  | International         : Cmm2
  | Schoenflies           : C2v^11

  Quantities derived from the lattice vectors:
  | Reciprocal lattice vector 1:  0.386526  0.000000 -0.000000
  | Reciprocal lattice vector 2:  0.000000  0.386526 -0.000000
  | Reciprocal lattice vector 3: -0.000000 -0.000000  0.386526
  | Unit cell volume                               :   0.429539E+04  A^3

  Range separation radius for Ewald summation (hartree_convergence_parameter):      3.87911183 bohr.

  Number of empty states per atom not set in control.in - providing a guess from actual geometry.
  | Total number of empty states used during s.c.f. cycle:      648
  If you use a very high smearing, use empty_states (per atom!) in control.in to increase this value.

  Structure-dependent array size parameters: 
  | Maximum number of distinct radial functions  :        8
  | Maximum number of basis functions            :     3888
  | Number of Kohn-Sham states (occupied + empty):     2160
------------------------------------------------------------

************************** W A R N I N G *******************************
* You are using the PIMD wrapper. Specifications and positions         *
* in geometry.in will be IGNORED - all is received from the wrapper.   *
* Please make sure species are declared in the same order in           *
* geometry.in and wrapper input.                                       *
************************************************************************


------------------------------------------------------------
          Preparing all fixed parts of the calculation.
------------------------------------------------------------
  Determining machine precision:
    2.225073858507201E-308
  Setting up grids for atomic and cluster calculations.

  Creating wave function, potential, and density for free atoms.

  Species: Si

  List of occupied orbitals and eigenvalues:
    n    l              occ      energy [Ha]    energy [eV]
    1    0           2.0000       -65.491668     -1782.1190
    2    0           2.0000        -5.087967      -138.4506
    3    0           2.0000        -0.391471       -10.6525
    2    1           6.0000        -3.502246       -95.3010
    3    1           2.0000        -0.143943        -3.9169


  Adding cutoff potential to free-atom effective potential.
  Creating fixed part of basis set: Ionic, confined, hydrogenic.
 
  Si                   ion:

  List of free ionic orbitals and eigenvalues:
    n    l      energy [Ha]    energy [eV]
    1    0       -66.364436     -1805.8682
    2    0        -5.935799      -161.5213
    3    0        -1.078166       -29.3384
    2    1        -4.351123      -118.4001
    3    1        -0.781733       -21.2720


  List of ionic basis orbitals and eigenvalues:
    n    l      energy [Ha]    energy [eV]    outer radius [A]
    3    0        -1.078146       -29.3378       4.214062

 
  Si                   hydrogenic:
 
  List of hydrogenic basis orbitals: 
    n    l      effective z      eigenvalue [eV]  inner max. [A]     outer max. [A]     outer radius [A]   
    3    2         4.200000       -26.6624           1.139231           1.139231           4.534782
    2    1         1.400000        -6.4613           1.472672           1.472672           4.590560
 
  Creating atomic-like basis functions for current effective potential.

  Species Si                  :

  List of atomic basis orbitals and eigenvalues:
    n    l      energy [Ha]    energy [eV]    outer radius [A]
    1    0       -65.491668     -1782.1190       0.789468
    2    0        -5.087967      -138.4506       2.815114
[...]
            atom         2.70925275       -0.00000000       -2.70925272  Si
            atom         5.41850551        2.70925272        2.70925272  Si
            atom         5.41850551        5.41850543        5.41850543  Si
            atom         5.41850551        8.12775815        8.12775815  Si
            atom         5.41850551       -5.41850543       -5.41850543  Si
            atom         5.41850551       -2.70925272       -2.70925272  Si
            atom         5.41850551       -0.00000000       -0.00000000  Si
            atom         8.12775826        2.70925272        5.41850543  Si
            atom         8.12775826        5.41850543        8.12775815  Si
            atom         8.12775826        8.12775815       -5.41850543  Si
            atom         8.12775826       -5.41850543       -2.70925272  Si
            atom         8.12775826       -2.70925272       -0.00000000  Si
            atom         8.12775826       -0.00000000        2.70925272  Si
            atom        -5.41850551        2.70925272        8.12775815  Si
            atom        -5.41850551        5.41850543       -5.41850543  Si
            atom        -5.41850551        8.12775815       -2.70925272  Si
            atom        -5.41850551       -5.41850543       -0.00000000  Si
            atom        -5.41850551       -2.70925272        2.70925272  Si
            atom        -5.41850551        0.00000000        5.41850543  Si
            atom        -2.70925275        2.70925272       -5.41850543  Si
            atom        -2.70925275        5.41850543       -2.70925272  Si
            atom        -2.70925275        8.12775815       -0.00000000  Si
            atom        -2.70925275       -5.41850543        2.70925272  Si
            atom        -2.70925275       -2.70925272        5.41850543  Si
            atom        -2.70925275        0.00000000        8.12775815  Si
            atom         0.00000000        2.70925272       -2.70925272  Si
            atom         0.00000000        5.41850543       -0.00000000  Si
            atom         0.00000000        8.12775815        2.70925272  Si
            atom         0.00000000       -5.41850543        5.41850543  Si
            atom         0.00000000       -2.70925272        8.12775815  Si
            atom         0.00000000        0.00000000       -5.41850543  Si
            atom         5.41850551        5.41850543       -0.00000000  Si
            atom         5.41850551        8.12775815        2.70925272  Si
            atom         5.41850551       -5.41850543        5.41850543  Si
            atom         5.41850551       -2.70925272        8.12775815  Si
            atom         5.41850551       -0.00000000       -5.41850543  Si
            atom         5.41850551        2.70925272       -2.70925272  Si
            atom         8.12775826        5.41850543        2.70925272  Si
            atom         8.12775826        8.12775815        5.41850543  Si
            atom         8.12775826       -5.41850543        8.12775815  Si
            atom         8.12775826       -2.70925272       -5.41850543  Si
            atom         8.12775826       -0.00000000       -2.70925272  Si
            atom         8.12775826        2.70925272       -0.00000000  Si
            atom        -5.41850551        5.41850543        5.41850543  Si
            atom        -5.41850551        8.12775815        8.12775815  Si
            atom        -5.41850551       -5.41850543       -5.41850543  Si
            atom        -5.41850551       -2.70925272       -2.70925272  Si
            atom        -5.41850551        0.00000000       -0.00000000  Si
            atom        -5.41850551        2.70925272        2.70925272  Si
            atom        -2.70925275        5.41850543        8.12775815  Si
            atom        -2.70925275        8.12775815       -5.41850543  Si
            atom        -2.70925275       -5.41850543       -2.70925272  Si
            atom        -2.70925275       -2.70925272       -0.00000000  Si
            atom        -2.70925275        0.00000000        2.70925272  Si
            atom        -2.70925275        2.70925272        5.41850543  Si
            atom        -0.00000000        5.41850543       -5.41850543  Si
            atom        -0.00000000        8.12775815       -2.70925272  Si
            atom         0.00000000       -5.41850543       -0.00000000  Si
            atom         0.00000000       -2.70925272        2.70925272  Si
            atom         0.00000000        0.00000000        5.41850543  Si
            atom         0.00000000        2.70925272        8.12775815  Si
            atom         2.70925275        5.41850543       -2.70925272  Si
            atom         2.70925275        8.12775815       -0.00000000  Si
            atom         2.70925275       -5.41850543        2.70925272  Si
            atom         2.70925275       -2.70925272        5.41850543  Si
            atom         2.70925275        0.00000000        8.12775815  Si
            atom         2.70925275        2.70925272       -5.41850543  Si
            atom         1.35462638        1.35462636        1.35462636  Si
            atom         1.35462638        4.06387908        4.06387908  Si
            atom         1.35462638        6.77313179        6.77313179  Si
            atom         1.35462638       -6.77313179       -6.77313179  Si
            atom         1.35462638       -4.06387908       -4.06387908  Si
            atom         1.35462638       -1.35462636       -1.35462636  Si
            atom         4.06387913        1.35462636        4.06387908  Si
            atom         4.06387913        4.06387908        6.77313179  Si
            atom         4.06387913        6.77313179       -6.77313179  Si
            atom         4.06387913       -6.77313179       -4.06387908  Si
            atom         4.06387913       -4.06387908       -1.35462636  Si
            atom         4.06387913       -1.35462636        1.35462636  Si
            atom         6.77313189        1.35462636        6.77313179  Si
            atom         6.77313189        4.06387907       -6.77313179  Si
            atom         6.77313189        6.77313179       -4.06387907  Si
            atom         6.77313189       -6.77313179       -1.35462636  Si
            atom         6.77313189       -4.06387908        1.35462636  Si
            atom         6.77313189       -1.35462636        4.06387908  Si
            atom        -6.77313189        1.35462636       -6.77313179  Si
            atom        -6.77313189        4.06387908       -4.06387908  Si
            atom        -6.77313189        6.77313179       -1.35462636  Si
            atom        -6.77313189       -6.77313179        1.35462636  Si
            atom        -6.77313189       -4.06387908        4.06387908  Si
            atom        -6.77313189       -1.35462636        6.77313179  Si
            atom        -4.06387913        1.35462636       -4.06387908  Si
            atom        -4.06387913        4.06387908       -1.35462636  Si
            atom        -4.06387913        6.77313179        1.35462636  Si
            atom        -4.06387913       -6.77313179        4.06387908  Si
            atom        -4.06387913       -4.06387908        6.77313179  Si
            atom        -4.06387913       -1.35462636       -6.77313179  Si
            atom        -1.35462638        1.35462636       -1.35462636  Si
            atom        -1.35462638        4.06387908        1.35462636  Si
            atom        -1.35462638        6.77313179        4.06387908  Si
            atom        -1.35462638       -6.77313179        6.77313179  Si
            atom        -1.35462638       -4.06387908       -6.77313179  Si
            atom        -1.35462638       -1.35462636       -4.06387908  Si
            atom         4.06387913        4.06387908        1.35462636  Si
            atom         4.06387913        6.77313179        4.06387908  Si
            atom         4.06387913       -6.77313179        6.77313179  Si
            atom         4.06387913       -4.06387908       -6.77313179  Si
            atom         4.06387913       -1.35462636       -4.06387908  Si
            atom         4.06387913        1.35462636       -1.35462636  Si
            atom         6.77313189        4.06387907        4.06387908  Si
            atom         6.77313189        6.77313179        6.77313179  Si
            atom         6.77313189       -6.77313179       -6.77313179  Si
            atom         6.77313189       -4.06387908       -4.06387908  Si
            atom         6.77313189       -1.35462636       -1.35462636  Si
            atom         6.77313189        1.35462636        1.35462636  Si
            atom        -6.77313189        4.06387908        6.77313179  Si
            atom        -6.77313189        6.77313179       -6.77313179  Si
            atom        -6.77313189       -6.77313179       -4.06387908  Si
            atom        -6.77313189       -4.06387908       -1.35462636  Si
            atom        -6.77313189       -1.35462636        1.35462636  Si
            atom        -6.77313189        1.35462636        4.06387908  Si
            atom        -4.06387913        4.06387908       -6.77313179  Si
            atom        -4.06387913        6.77313179       -4.06387908  Si
            atom        -4.06387913       -6.77313179       -1.35462636  Si
            atom        -4.06387913       -4.06387908        1.35462636  Si
            atom        -4.06387913       -1.35462636        4.06387908  Si
            atom        -4.06387913        1.35462636        6.77313179  Si
            atom        -1.35462638        4.06387908       -4.06387908  Si
            atom        -1.35462638        6.77313179       -1.35462636  Si
            atom        -1.35462638       -6.77313179        1.35462636  Si
            atom        -1.35462638       -4.06387908        4.06387908  Si
            atom        -1.35462638       -1.35462636        6.77313179  Si
            atom        -1.35462638        1.35462636       -6.77313179  Si
            atom         1.35462638        4.06387908       -1.35462636  Si
            atom         1.35462638        6.77313179        1.35462636  Si
            atom         1.35462638       -6.77313179        4.06387908  Si
            atom         1.35462638       -4.06387908        6.77313179  Si
            atom         1.35462638       -1.35462636       -6.77313179  Si
            atom         1.35462638        1.35462636       -4.06387908  Si
            atom         6.77313189        6.77313179        1.35462636  Si
            atom         6.77313189       -6.77313179        4.06387908  Si
            atom         6.77313189       -4.06387908        6.77313179  Si
            atom         6.77313189       -1.35462636       -6.77313179  Si
            atom         6.77313189        1.35462636       -4.06387907  Si
            atom         6.77313189        4.06387907       -1.35462636  Si
            atom        -6.77313189        6.77313179        4.06387908  Si
            atom        -6.77313189       -6.77313179        6.77313179  Si
            atom        -6.77313189       -4.06387908       -6.77313179  Si
            atom        -6.77313189       -1.35462636       -4.06387908  Si
            atom        -6.77313189        1.35462636       -1.35462636  Si
            atom        -6.77313189        4.06387908        1.35462636  Si
            atom        -4.06387913        6.77313179        6.77313179  Si
            atom        -4.06387913       -6.77313179       -6.77313179  Si
            atom        -4.06387913       -4.06387908       -4.06387908  Si
            atom        -4.06387913       -1.35462636       -1.35462636  Si
            atom        -4.06387913        1.35462636        1.35462636  Si
            atom        -4.06387913        4.06387908        4.06387908  Si
            atom        -1.35462638        6.77313179       -6.77313179  Si
            atom        -1.35462638       -6.77313179       -4.06387908  Si
            atom        -1.35462638       -4.06387908       -1.35462636  Si
            atom        -1.35462638       -1.35462636        1.35462636  Si
            atom        -1.35462638        1.35462636        4.06387908  Si
            atom        -1.35462638        4.06387908        6.77313179  Si
            atom         1.35462638        6.77313179       -4.06387908  Si
            atom         1.35462638       -6.77313179       -1.35462636  Si
            atom         1.35462638       -4.06387908        1.35462636  Si
            atom         1.35462638       -1.35462636        4.06387908  Si
            atom         1.35462638        1.35462636        6.77313179  Si
            atom         1.35462638        4.06387908       -6.77313179  Si
            atom         4.06387913        6.77313179       -1.35462636  Si
            atom         4.06387913       -6.77313179        1.35462636  Si
            atom         4.06387913       -4.06387908        4.06387908  Si
            atom         4.06387913       -1.35462636        6.77313179  Si
            atom         4.06387913        1.35462636       -6.77313179  Si
            atom         4.06387913        4.06387908       -4.06387908  Si
 ------------------------------------------------------------------------
  @ DRIVER MODE: Message from server: STATUS      
  @ DRIVER MODE: Message from server: GETFORCE    
  @ DRIVER MODE: Returning v,forces,stress 

  Starting with the calculation of the polarization:

------------------------------------------------------------------------------
  Final output of selected total energy values:

  The following output summarizes some interesting total energy values
  at the end of a run (AFTER all relaxation, molecular dynamics, etc.).

  | Total energy of the DFT / Hartree-Fock s.c.f. calculation      :       -1700808.328204407 eV
  | Final zero-broadening corrected energy (caution - metals only) :       -1700808.328204407 eV
  | For reference only, the value of 1 Hartree used in FHI-aims is :             27.211384500 eV
  | For reference only, the overall average (free atom contribution
  | + realspace contribution) of the electrostatic potential after
  | s.c.f. convergence is                                          :            -12.947563603 eV

  Before relying on these values, please be sure to understand exactly which
  total energy value is referred to by a given number. Different objects may
  all carry the same name 'total energy'. Definitions:

  Total energy of the DFT / Hartree-Fock s.c.f. calculation:
  | Note that this energy does not include ANY quantities calculated after the
  | s.c.f. cycle, in particular not ANY RPA, MP2, etc. many-body perturbation terms.

  Final zero-broadening corrected energy:
  | For metallic systems only, a broadening of the occupation numbers at the Fermi
  | level can be extrapolated back to zero broadening by an electron-gas inspired
  | formula. For all systems that are not real metals, this value can be
  | meaningless and should be avoided.

------------------------------------------------------------------------------
  Methods described in the following list of references were used in this FHI-aims run.
  If you publish the results, please make sure to cite these reference if they apply.
  FHI-aims is an academic code, and for our developers (often, Ph.D. students
  and postdocs), scientific credit in the community is essential.
  Thank you for helping us!

  For any use of FHI-aims, please cite:

    Volker Blum, Ralf Gehrke, Felix Hanke, Paula Havu, Ville Havu,
    Xinguo Ren, Karsten Reuter, and Matthias Scheffler
    'Ab initio molecular simulations with numeric atom-centered orbitals'
    Computer Physics Communications 180, 2175-2196 (2009)
    http://dx.doi.org/10.1016/j.cpc.2009.06.022


  The provided symmetry information was generated with SPGlib:

    Atsushi Togo, Yusuke Seto, Dimitar Pashov
    SPGlib 1.7.3 obtained from http://spglib.sourceforge.net
    Copyright (C) 2008 Atsushi Togo


  The ELSI infrastructure was used in your run to solve the Kohn-Sham electronic structure.
  Please check out http://elsi-interchange.org to learn more.
  If scalability is important for your project, please acknowledge ELSI by citing:

    V. W-z. Yu, F. Corsetti, A. Garcia, W. P. Huhn, M. Jacquelin, W. Jia,
    B. Lange, L. Lin, J. Lu, W. Mi, A. Seifitokaldani, A. Vazquez-Mayagoitia,
    C. Yang, H. Yang, and V. Blum
    'ELSI: A unified software interface for Kohn-Sham electronic structure solvers'
    Computer Physics Communications 222, 267-285 (2018).
    http://dx.doi.org/10.1016/j.cpc.2017.09.007


  For the real-space grid partitioning and parallelization used in this calculation, please cite:

    Ville Havu, Volker Blum, Paula Havu, and Matthias Scheffler,
    'Efficient O(N) integration for all-electron electronic structure calculation'
    'using numerically tabulated basis functions'
    Journal of Computational Physics 228, 8367-8379 (2009).
    http://dx.doi.org/10.1016/j.jcp.2009.08.008

  Of course, there are many other important community references, e.g., those cited in the
  above references. Our list is limited to references that describe implementations in the
  FHI-aims code. The reason is purely practical (length of this list) - please credit others as well.

------------------------------------------------------------
          Leaving FHI-aims.
          Date     :  20200805, Time     :  141101.379

          Computational steps:
          | Number of self-consistency cycles          :           24
          | Number of SCF (re)initializations          :            1

          Detailed time accounting                     :  max(cpu_time)    wall_clock(cpu1)
          | Total time                                 :      103.789 s         104.545 s
          | Preparation time                           :        0.146 s           0.503 s
          | Boundary condition initalization           :        1.149 s           1.154 s
          | Grid partitioning                          :        0.358 s           0.359 s
          | Preloading free-atom quantities on grid    :        0.467 s           0.469 s
          | Free-atom superposition energy             :        0.083 s           0.083 s
          | Total time for integrations                :       13.021 s          13.035 s
          | Total time for solution of K.-S. equations :       35.477 s          35.547 s
          | Total time for density & force components  :       18.860 s          18.445 s
          | Total time for mixing & preconditioning    :        4.876 s           4.888 s
          | Total time for Hartree multipole update    :        0.582 s           0.579 s
          | Total time for Hartree multipole sum       :       27.793 s          27.866 s
          | Total time for total energy evaluation     :        0.050 s           0.042 s
          | Total time for scaled ZORA corrections     :        0.000 s           0.000 s

          Partial memory accounting:
          | Residual value for overall tracked memory usage across tasks:     0.000000 MB (should be 0.000000 MB)
          | Peak values for overall tracked memory usage:
          |   Minimum:      193.264 MB (on task  15 after allocating temp_ham_ovlp)
          |   Maximum:      193.856 MB (on task   0 after allocating temp_ham_ovlp)
          |   Average:      193.618 MB
          | Largest tracked array allocation:
          |   Minimum:       64.072 MB (KS_eigenvector on task   0)
          |   Maximum:       64.072 MB (KS_eigenvector on task   0)
          |   Average:       64.072 MB
          Note:  These values currently only include a subset of arrays which are explicitly tracked.
          The "true" memory usage will be greater.

          Have a nice day.
------------------------------------------------------------
