nqpoint: 500    
npath: 10     
segment_nqpoint:
- 50
- 50
- 50
- 50
- 50
- 50
- 50
- 50
- 50
- 50
labels:
- [ 'G', 'X' ]
- [ 'X', 'W' ]
- [ 'W', 'K' ]
- [ 'K', 'G' ]
- [ 'G', 'L' ]
- [ 'L', 'U' ]
- [ 'U', 'W' ]
- [ 'W', 'L' ]
- [ 'L', 'K|U' ]
- [ 'K|U', 'X' ]
reciprocal_lattice:
- [  -0.19197451,   0.19197451,   0.19197451 ] # a*
- [   0.19197451,  -0.19197451,   0.19197451 ] # b*
- [   0.19197451,   0.19197451,  -0.19197451 ] # c*
natom: 2      
lattice:
- [     0.000000000000000,     2.604512412393600,     2.604512412393600 ] # a
- [     2.604512412393600,     0.000000000000000,     2.604512412393600 ] # b
- [     2.604512412393600,     2.604512412393600,     0.000000000000000 ] # c
points:
- symbol: Si # 1
  coordinates: [  0.000000000000000,  0.000000000000000,  0.000000000000000 ]
  mass: 28.085000
  magnetic_moment: 0.00000000
- symbol: Si # 2
  coordinates: [  0.250000000000000,  0.250000000000000,  0.250000000000000 ]
  mass: 28.085000
  magnetic_moment: 0.00000000

phonon:
- q-position: [    0.0000000,    0.0000000,    0.0000000 ]
  distance:    0.0000000
  band:
  - # 1
    frequency:   -0.0000003469
    eigenvector:
    - # atom 1
      - [ -0.34093731984603,  0.00000000000000 ]
      - [ -0.61584837020538,  0.00000000000000 ]
      - [ -0.06702632953985,  0.00000000000000 ]
    - # atom 2
      - [ -0.34093731984603,  0.00000000000000 ]
      - [ -0.61584837020538,  0.00000000000000 ]
      - [ -0.06702632953985,  0.00000000000000 ]
  - # 2
    frequency:   -0.0000003396
    eigenvector:
    - # atom 1
      - [ -0.00000000000000,  0.00000000000000 ]
      - [  0.07650672296381,  0.00000000000000 ]
      - [ -0.70295570368362,  0.00000000000000 ]
    - # atom 2
      - [ -0.00000000000000,  0.00000000000000 ]
      - [  0.07650672296381,  0.00000000000000 ]
      - [ -0.70295570368362,  0.00000000000000 ]
  - # 3
    frequency:   -0.0000002638
    eigenvector:
    - # atom 1
      - [  0.61948506352955, -0.00000000000000 ]
      - [ -0.33893584386535,  0.00000000000000 ]
      - [ -0.03688834242788,  0.00000000000000 ]
    - # atom 2
      - [  0.61948506352955,  0.00000000000000 ]
      - [ -0.33893584386535,  0.00000000000000 ]
      - [ -0.03688834242788,  0.00000000000000 ]
  - # 4
    frequency:   17.2333379718
    eigenvector:
    - # atom 1
      - [  0.70710678118655,  0.00000000000000 ]
      - [  0.00000000000000,  0.00000000000000 ]
      - [ -0.00000000000000,  0.00000000000000 ]
    - # atom 2
      - [ -0.70710678118655,  0.00000000000000 ]
      - [ -0.00000000000000,  0.00000000000000 ]
      - [  0.00000000000000,  0.00000000000000 ]
  - # 5
    frequency:   17.2333379718
    eigenvector:
    - # atom 1
      - [ -0.00000000000000,  0.00000000000000 ]
      - [  0.63951172460195,  0.00000000000000 ]
      - [ -0.30170308930577,  0.00000000000000 ]
    - # atom 2
      - [  0.00000000000000,  0.00000000000000 ]
      - [ -0.63951172460195,  0.00000000000000 ]
      - [  0.30170308930577,  0.00000000000000 ]
  - # 6
    frequency:   17.2333379718
    eigenvector:
    - # atom 1
      - [  0.00000000000000,  0.00000000000000 ]
      - [ -0.30170308930577,  0.00000000000000 ]
      - [ -0.63951172460195,  0.00000000000000 ]
    - # atom 2
      - [ -0.00000000000000,  0.00000000000000 ]
      - [  0.30170308930577,  0.00000000000000 ]
      - [  0.63951172460195,  0.00000000000000 ]

- q-position: [    0.0102041,    0.0000000,    0.0102041 ]
  distance:    0.0039178
  band:
  - # 1
    frequency:    0.0710272493
    eigenvector:
    - # atom 1
      - [  0.00000000000000,  0.00000000000000 ]
      - [ -0.00000000000023,  0.00000000000002 ]
      - [ -0.63843867896467,  0.30396719099575 ]
    - # atom 2
      - [  0.00859401892882,  0.01805048128364 ]
      - [ -0.00000000000023,  0.00000000000002 ]
      - [ -0.63818345867280,  0.30384567800201 ]
  - # 2
    frequency:    0.0710272493
    eigenvector:
    - # atom 1
      - [ -0.70710678118655,  0.00000000000000 ]
      - [  0.00000000000000,  0.00000000000000 ]
      - [ -0.00000000000000,  0.00000000000000 ]
    - # atom 2
      - [ -0.70682411034435, -0.00000000000000 ]
      - [ -0.00000000000000,  0.00000000000000 ]
      - [  0.00000000000000,  0.01999192426756 ]
  - # 3
    frequency:    0.3417487076
    eigenvector:
    - # atom 1
      - [ -0.00000000000000,  0.00000000000000 ]
      - [ -0.70698789114550, -0.01296617806585 ]
      - [  0.00000000000022, -0.00000000000007 ]
    - # atom 2
      - [ -0.00000000000000, -0.00000000000001 ]
      - [ -0.70698789114550, -0.01296617806585 ]
      - [  0.00000000000022, -0.00000000000007 ]
  - # 4
    frequency:   17.2322993892
    eigenvector:
    - # atom 1
      - [  0.00000000000000,  0.00000000000000 ]
      - [  0.70639503263583, -0.03171841527289 ]
      - [ -0.00000000000021, -0.00000000000025 ]
    - # atom 2
      - [  0.00000000000001, -0.00000000000001 ]
      - [ -0.70639503263583,  0.03171841527289 ]
      - [  0.00000000000021,  0.00000000000025 ]
  - # 5
    frequency:   17.2325013963
    eigenvector:
    - # atom 1
      - [  0.00000000000000,  0.00000000000000 ]
      - [ -0.00000000000019,  0.00000000000027 ]
      - [ -0.70689659289920,  0.01723969105013 ]
    - # atom 2
      - [ -0.00048741520664, -0.01998598164555 ]
      - [  0.00000000000019, -0.00000000000027 ]
      - [  0.70661400608123, -0.01723279936401 ]
  - # 6
    frequency:   17.2325013963
    eigenvector:
    - # atom 1
      - [  0.70710678118655,  0.00000000000000 ]
      - [  0.00000000000000,  0.00000000000000 ]
      - [ -0.00000000000000,  0.00000000000000 ]
    - # atom 2
      - [ -0.70682411034435, -0.00000000000000 ]
      - [ -0.00000000000000,  0.00000000000000 ]
      - [  0.00000000000000,  0.01999192426756 ]

- q-position: [    0.0204082,    0.0000000,    0.0204082 ]
  distance:    0.0078357
  band:
  - # 1
    frequency:    0.1420222563
    eigenvector:
    - # atom 1
      - [  0.49167597554995, -0.00000000000000 ]
      - [ -0.00000000000001,  0.00000000000000 ]
      - [  0.50801710279246, -0.01316656133404 ]
    - # atom 2
      - [  0.49014518620195, -0.02872124288973 ]
      - [ -0.00000000000001,  0.00000000000000 ]
      - [  0.50720456123394, -0.04094288355033 ]
  - # 2
    frequency:    0.1420222563
    eigenvector:
    - # atom 1
      - [ -0.50818769668992,  0.00000000000000 ]
      - [ -0.00000000000008,  0.00000000000000 ]
      - [  0.49151092448416, -0.01273876154562 ]
    - # atom 2
      - [ -0.50809508059813, -0.02778804998389 ]
      - [ -0.00000000000008,  0.00000000000000 ]
      - [  0.49072478352471,  0.01601250088842 ]
  - # 3
    frequency:    0.6833183029
    eigenvector:
    - # atom 1
      - [ -0.00000000000005,  0.00000000000000 ]
      - [  0.70710577617974,  0.00119218004264 ]
      - [  0.00000000000006, -0.00000000000000 ]
    - # atom 2
      - [ -0.00000000000005, -0.00000000000000 ]
      - [  0.70710577617974,  0.00119218004264 ]
      - [  0.00000000000006,  0.00000000000000 ]
  - # 4
    frequency:   17.2291807113
    eigenvector:
    - # atom 1
      - [  0.00000000000085,  0.00000000000000 ]
      - [ -0.70702160519473, -0.01097496186160 ]
      - [  0.00000000000174, -0.00000000000025 ]
    - # atom 2
      - [ -0.00000000000083,  0.00000000000010 ]
      - [  0.70702160519473,  0.01097496186160 ]
      - [ -0.00000000000174,  0.00000000000029 ]
  - # 5
    frequency:   17.2299945287
    eigenvector:
    - # atom 1
      - [ -0.01336562192977,  0.00000000000000 ]
      - [ -0.00000000000168, -0.00000000000055 ]
      - [ -0.69797113274870, -0.11250625760339 ]
    - # atom 2
      - [  0.01970489556892, -0.03946047942777 ]
      - [  0.00000000000168,  0.00000000000055 ]
      - [  0.69685477160872,  0.11157067240143 ]
  - # 6
    frequency:   17.2299945287
    eigenvector:
    - # atom 1
      - [  0.70698045245285,  0.00000000000000 ]
      - [  0.00000000000082,  0.00000000000000 ]
      - [ -0.01319529874673, -0.00212695570103 ]
    - # atom 2
      - [ -0.70572943195277, -0.00074600909738 ]
      - [ -0.00000000000082, -0.00000000000000 ]
      - [  0.01317419369230,  0.04209338388167 ]

- q-position: [    0.0306122,    0.0000000,    0.0306122 ]
  distance:    0.0117535
  band:
  - # 1
    frequency:    0.2129524892
    eigenvector:
    - # atom 1
      - [ -0.00000000000000,  0.00000000000000 ]
      - [  0.00000000000000, -0.00000000000000 ]
      - [ -0.70251502152166,  0.08045274722731 ]
    - # atom 2
      - [  0.00682074772639,  0.05955890756916 ]
      - [  0.00000000000000, -0.00000000000000 ]
      - [ -0.69998577985038,  0.08016309585385 ]
  - # 2
    frequency:    0.2129524892
    eigenvector:
    - # atom 1
      - [ -0.70710678118655,  0.00000000000000 ]
      - [  0.00000000000000,  0.00000000000000 ]
      - [ -0.00000000000000,  0.00000000000000 ]
    - # atom 2
      - [ -0.70456100795433, -0.00000000000000 ]
      - [ -0.00000000000000,  0.00000000000000 ]
      - [  0.00000000000000,  0.05994819488840 ]
  - # 3
    frequency:    1.0245298899
    eigenvector:
    - # atom 1
      - [  0.00000000000000,  0.00000000000000 ]
      - [ -0.70018845905909,  0.09867178827028 ]
      - [ -0.00000000000000, -0.00000000000000 ]
    - # atom 2
      - [  0.00000000000000,  0.00000000000000 ]
      - [ -0.70018845905909,  0.09867178827028 ]
      - [ -0.00000000000000, -0.00000000000000 ]
  - # 4
    frequency:   17.2239731604
    eigenvector:
    - # atom 1
      - [  0.00000000000000,  0.00000000000000 ]
      - [  0.70245609556269,  0.08096563349240 ]
      - [  0.00000000000012,  0.00000000000001 ]
    - # atom 2
      - [ -0.00000000000000,  0.00000000000001 ]
      - [ -0.70245609556269, -0.08096563349240 ]
      - [ -0.00000000000012, -0.00000000000001 ]
  - # 5
    frequency:   17.2258259410
    eigenvector:
    - # atom 1
      - [  0.00000000000000,  0.00000000000000 ]
      - [  0.00000000000011,  0.00000000000002 ]
      - [ -0.70004325710462, -0.09969673105149 ]
    - # atom 2
      - [  0.00845224402004, -0.05934935249355 ]
      - [ -0.00000000000011, -0.00000000000002 ]
      - [  0.69752291444528,  0.09933779619751 ]
  - # 6
    frequency:   17.2258259410
    eigenvector:
    - # atom 1
      - [  0.70710678118655,  0.00000000000000 ]
      - [  0.00000000000000,  0.00000000000000 ]
      - [ -0.00000000000000,  0.00000000000000 ]
    - # atom 2
      - [ -0.70456100795433, -0.00000000000000 ]
      - [ -0.00000000000000,  0.00000000000000 ]
      - [  0.00000000000000,  0.05994819488840 ]

- q-position: [    0.0408163,    0.0000000,    0.0408163 ]
  distance:    0.0156714
  band:
  - # 1
    frequency:    0.2837848387
    eigenvector:
    - # atom 1
      - [ -0.09255375897511,  0.00000000000000 ]
      - [  0.00000000000000, -0.00000000000000 ]
      - [ -0.67138178990672,  0.20169356430294 ]
    - # atom 2
      - [ -0.06917094936270,  0.07586180461855 ]
      - [  0.00000000000000, -0.00000000000000 ]
      - [ -0.66708207472422,  0.21085983957575 ]
  - # 2
    frequency:    0.2837848387
    eigenvector:
    - # atom 1
      - [ -0.70102339597162,  0.00000000000000 ]
      - [ -0.00000000000000,  0.00000000000000 ]
      - [  0.08864027751482, -0.02662892229360 ]
    - # atom 2
      - [ -0.69954274389905, -0.01001577867505 ]
      - [ -0.00000000000000,  0.00000000000000 ]
      - [  0.08807260059427,  0.05275273130637 ]
  - # 3
    frequency:    1.3652050055
    eigenvector:
    - # atom 1
      - [ -0.00000000000000, -0.00000000000000 ]
      - [  0.70526746195529, -0.05096868751641 ]
      - [  0.00000000000000,  0.00000000000000 ]
    - # atom 2
      - [ -0.00000000000000, -0.00000000000000 ]
      - [  0.70526746195529, -0.05096868751641 ]
      - [  0.00000000000000,  0.00000000000000 ]
  - # 4
    frequency:   17.2166621473
    eigenvector:
    - # atom 1
      - [ -0.00000000000001,  0.00000000000000 ]
      - [  0.66899484827095,  0.22901068312838 ]
      - [  0.00000000000052,  0.00000000000002 ]
    - # atom 2
      - [  0.00000000000001,  0.00000000000006 ]
      - [ -0.66899484827095, -0.22901068312838 ]
      - [ -0.00000000000052, -0.00000000000002 ]
  - # 5
    frequency:   17.2200099058
    eigenvector:
    - # atom 1
      - [ -0.03514962513421,  0.00000000000000 ]
      - [  0.00000000000045,  0.00000000000026 ]
      - [ -0.68769020223166, -0.16076905674755 ]
    - # atom 2
      - [  0.05309038190766, -0.07770454984642 ]
      - [ -0.00000000000045, -0.00000000000026 ]
      - [  0.68328604345369,  0.15576776657406 ]
  - # 6
    frequency:   17.2200099058
    eigenvector:
    - # atom 1
      - [  0.70623261313318,  0.00000000000000 ]
      - [  0.00000000000004,  0.00000000000002 ]
      - [ -0.03422675810689, -0.00800157338074 ]
    - # atom 2
      - [ -0.70080557751754, -0.00386740253499 ]
      - [ -0.00000000000004, -0.00000000000002 ]
      - [  0.03400756045558,  0.08775005156577 ]

- q-position: [    0.0510204,    0.0000000,    0.0510204 ]
  distance:    0.0195892
  band:
  - # 1
    frequency:    0.3544853354
    eigenvector:
    - # atom 1
      - [ -0.70552103136599,  0.00000000000000 ]
      - [ -0.00000000000000, -0.00000000000000 ]
      - [ -0.02646909737706,  0.03923596799257 ]
    - # atom 2
      - [ -0.69291689244285,  0.00373657899688 ]
      - [ -0.00000000000000, -0.00000000000000 ]
      - [ -0.02620402818950,  0.13843975964796 ]
  - # 2
    frequency:    0.3544853354
    eigenvector:
    - # atom 1
      - [ -0.04732942319815,  0.00000000000000 ]
      - [  0.00000000000000,  0.00000000000000 ]
      - [  0.39456438762427, -0.58487508898774 ]
    - # atom 2
      - [ -0.12942086631015, -0.05569970833199 ]
      - [  0.00000000000000,  0.00000000000000 ]
      - [  0.39061310586442, -0.57233659972276 ]
  - # 3
    frequency:    1.7051658350
    eigenvector:
    - # atom 1
      - [ -0.00000000000000,  0.00000000000000 ]
      - [  0.70699331533708, -0.01266696762004 ]
      - [  0.00000000000000,  0.00000000000000 ]
    - # atom 2
      - [ -0.00000000000000, -0.00000000000000 ]
      - [  0.70699331533708, -0.01266696762004 ]
      - [  0.00000000000000,  0.00000000000000 ]
  - # 4
    frequency:   17.2072273323
    eigenvector:
    - # atom 1
      - [ -0.00000000000007,  0.00000000000000 ]
      - [  0.70622158196792,  0.03537056916038 ]
      - [ -0.00000000000008, -0.00000000000002 ]
    - # atom 2
      - [  0.00000000000007, -0.00000000000001 ]
      - [ -0.70622158196792, -0.03537056916038 ]
      - [  0.00000000000008,  0.00000000000001 ]
  - # 5
    frequency:   17.2125663750
    eigenvector:
    - # atom 1
      - [  0.10146545693888,  0.00000000000000 ]
      - [  0.00000000000009, -0.00000000000001 ]
      - [  0.69933397347934,  0.02523399662715 ]
    - # atom 2
      - [ -0.10401157532776,  0.09872329984972 ]
      - [ -0.00000000000009,  0.00000000000001 ]
      - [ -0.69233064104457, -0.01065766088002 ]
  - # 6
    frequency:   17.2125663750
    eigenvector:
    - # atom 1
      - [  0.69978908325879,  0.00000000000000 ]
      - [  0.00000000000005,  0.00000000000000 ]
      - [ -0.10139946859635, -0.00365878671077 ]
    - # atom 2
      - [ -0.69226469107799, -0.01431431979922 ]
      - [ -0.00000000000005, -0.00000000000000 ]
      - [  0.10038402502544,  0.10240969316951 ]

- q-position: [    0.0612245,    0.0000000,    0.0612245 ]
  distance:    0.0235071
  band:
  - # 1
    frequency:    0.4250188733
    eigenvector:
    - # atom 1
      - [ -0.00000000000000,  0.00000000000000 ]
      - [  0.00000000000001, -0.00000000000000 ]
      - [ -0.38104252049685,  0.59565644256854 ]
    - # atom 2
      - [  0.10083926580693,  0.06450706357248 ]
      - [  0.00000000000001, -0.00000000000000 ]
      - [ -0.37554259568769,  0.58705880458854 ]
  - # 2
    frequency:    0.4250188733
    eigenvector:
    - # atom 1
      - [ -0.70710678118655,  0.00000000000000 ]
      - [  0.00000000000000,  0.00000000000000 ]
      - [ -0.00000000000000,  0.00000000000000 ]
    - # atom 2
      - [ -0.69690048157594, -0.00000000000000 ]
      - [ -0.00000000000000,  0.00000000000000 ]
      - [  0.00000000000000,  0.11970680339573 ]
  - # 3
    frequency:    2.0442354269
    eigenvector:
    - # atom 1
      - [  0.00000000000000,  0.00000000000000 ]
      - [ -0.70573977800971,  0.04394730634296 ]
      - [ -0.00000000000000,  0.00000000000000 ]
    - # atom 2
      - [  0.00000000000000,  0.00000000000000 ]
      - [ -0.70573977800971,  0.04394730634296 ]
      - [ -0.00000000000000,  0.00000000000000 ]
  - # 4
    frequency:   17.1956427096
    eigenvector:
    - # atom 1
      - [  0.00000000000000,  0.00000000000000 ]
      - [  0.68703228233005,  0.16729208898320 ]
      - [  0.00000000000016,  0.00000000000002 ]
    - # atom 2
      - [ -0.00000000000000,  0.00000000000003 ]
      - [ -0.68703228233005, -0.16729208898320 ]
      - [ -0.00000000000016, -0.00000000000002 ]
  - # 5
    frequency:   17.2035209493
    eigenvector:
    - # atom 1
      - [  0.70710678118655,  0.00000000000000 ]
      - [  0.00000000000000,  0.00000000000000 ]
      - [ -0.00000000000000,  0.00000000000000 ]
    - # atom 2
      - [ -0.69690048157594, -0.00000000000000 ]
      - [ -0.00000000000000,  0.00000000000000 ]
      - [  0.00000000000000,  0.11970680339573 ]
  - # 6
    frequency:   17.2035209493
    eigenvector:
    - # atom 1
      - [  0.00000000000000,  0.00000000000000 ]
      - [  0.00000000000015,  0.00000000000006 ]
      - [ -0.67127030340281, -0.22225251352796 ]
    - # atom 2
      - [  0.03762534690511, -0.11364001077743 ]
      - [ -0.00000000000015, -0.00000000000006 ]
      - [  0.66158126347487,  0.21904454578867 ]

- q-position: [    0.0714286,    0.0000000,    0.0714286 ]
  distance:    0.0274249
  band:
  - # 1
    frequency:    0.4953489421
    eigenvector:
    - # atom 1
      - [ -0.00000000000000,  0.00000000000000 ]
      - [ -0.00000000000000, -0.00000000000000 ]
      - [  0.30070739408636, -0.63998051778300 ]
    - # atom 2
      - [ -0.12630170492935, -0.05934533240096 ]
      - [ -0.00000000000000, -0.00000000000000 ]
      - [  0.29479326379757, -0.62739376987163 ]
  - # 2
    frequency:    0.4953489421
    eigenvector:
    - # atom 1
      - [ -0.70710678118655,  0.00000000000000 ]
      - [  0.00000000000000,  0.00000000000000 ]
      - [ -0.00000000000000,  0.00000000000000 ]
    - # atom 2
      - [ -0.69319983471879, -0.00000000000000 ]
      - [ -0.00000000000000, -0.00000000000000 ]
      - [  0.00000000000000,  0.13954923556165 ]
  - # 3
    frequency:    2.3822379067
    eigenvector:
    - # atom 1
      - [  0.00000000000000,  0.00000000000000 ]
      - [ -0.68540116657893, -0.17385407919356 ]
      - [ -0.00000000000000,  0.00000000000000 ]
    - # atom 2
      - [  0.00000000000000,  0.00000000000000 ]
      - [ -0.68540116657893, -0.17385407919356 ]
      - [ -0.00000000000000,  0.00000000000000 ]
  - # 4
    frequency:   17.1818767147
    eigenvector:
    - # atom 1
      - [  0.00000000000000,  0.00000000000000 ]
      - [  0.56553557896340, -0.42446378988852 ]
      - [  0.00000000000006, -0.00000000000002 ]
    - # atom 2
      - [  0.00000000000000,  0.00000000000001 ]
      - [ -0.56553557896340,  0.42446378988852 ]
      - [ -0.00000000000006,  0.00000000000002 ]
  - # 5
    frequency:   17.1929048392
    eigenvector:
    - # atom 1
      - [  0.00000000000000,  0.00000000000000 ]
      - [  0.00000000000006, -0.00000000000000 ]
      - [ -0.67771106992935, -0.20176150697100 ]
    - # atom 2
      - [  0.03981812197632, -0.13374792076186 ]
      - [ -0.00000000000006,  0.00000000000000 ]
      - [  0.66438226044700,  0.19779338426117 ]
  - # 6
    frequency:   17.1929048392
    eigenvector:
    - # atom 1
      - [  0.70710678118655,  0.00000000000000 ]
      - [  0.00000000000000,  0.00000000000000 ]
      - [ -0.00000000000000,  0.00000000000000 ]
    - # atom 2
      - [ -0.69319983471879, -0.00000000000000 ]
      - [ -0.00000000000000, -0.00000000000000 ]
      - [  0.00000000000000,  0.13954923556165 ]

- q-position: [    0.0816327,    0.0000000,    0.0816327 ]
  distance:    0.0313428
  band:
  - # 1
    frequency:    0.5654373714
    eigenvector:
    - # atom 1
      - [ -0.01145084571724,  0.00000000000000 ]
      - [  0.00000000000000, -0.00000000000000 ]
      - [ -0.31768154941978,  0.63162276026962 ]
    - # atom 2
      - [  0.13117355833877,  0.07158636918936 ]
      - [  0.00000000000000, -0.00000000000000 ]
      - [ -0.30951083759383,  0.61795787133994 ]
  - # 2
    frequency:    0.5654373714
    eigenvector:
    - # atom 1
      - [ -0.70701405794536,  0.00000000000000 ]
      - [  0.00000000000000,  0.00000000000000 ]
      - [  0.00514519105913, -0.01022980335124 ]
    - # atom 2
      - [ -0.69113496879416, -0.00115941749649 ]
      - [  0.00000000000000,  0.00000000000000 ]
      - [  0.00501285767839,  0.14935187283347 ]
  - # 3
    frequency:    2.7189986897
    eigenvector:
    - # atom 1
      - [ -0.00000000000000, -0.00000000000000 ]
      - [ -0.70641764874046, -0.03121066401096 ]
      - [ -0.00000000000000, -0.00000000000000 ]
    - # atom 2
      - [ -0.00000000000000,  0.00000000000000 ]
      - [ -0.70641764874046, -0.03121066401096 ]
      - [ -0.00000000000000, -0.00000000000000 ]
  - # 4
    frequency:   17.1658923551
    eigenvector:
    - # atom 1
      - [ -0.00000000000002,  0.00000000000000 ]
      - [ -0.70260441014073,  0.07966833028748 ]
      - [ -0.00000000000012,  0.00000000000001 ]
    - # atom 2
      - [  0.00000000000001, -0.00000000000003 ]
      - [  0.70260441014073, -0.07966833028748 ]
      - [  0.00000000000011, -0.00000000000001 ]
  - # 5
    frequency:   17.1807548154
    eigenvector:
    - # atom 1
      - [ -0.17963029871943,  0.00000000000000 ]
      - [  0.00000000000011, -0.00000000000002 ]
      - [ -0.67419450556461,  0.11486829174521 ]
    - # atom 2
      - [  0.14912581596061, -0.15192300865108 ]
      - [ -0.00000000000011,  0.00000000000002 ]
      - [  0.65685434517548, -0.15239179663149 ]
  - # 6
    frequency:   17.1807548154
    eigenvector:
    - # atom 1
      - [ -0.68391004948163,  0.00000000000000 ]
      - [ -0.00000000000001,  0.00000000000000 ]
      - [  0.17707849229787, -0.03017037924099 ]
    - # atom 2
      - [  0.67311860116329,  0.03990287238363 ]
      - [  0.00000000000001, -0.00000000000000 ]
      - [ -0.17252406559672, -0.12471790702819 ]

- q-position: [    0.0918367,    0.0000000,    0.0918367 ]
  distance:    0.0352606
  band:
  - # 1
    frequency:    0.6352440869
    eigenvector:
    - # atom 1
      - [ -0.00000000000000,  0.00000000000000 ]
      - [ -0.00000000000000, -0.00000000000000 ]
      - [  0.19591411370579, -0.67942450651333 ]
    - # atom 2
      - [ -0.17205827773686, -0.04961352536656 ]
      - [ -0.00000000000000, -0.00000000000000 ]
      - [  0.18952793474796, -0.65727742172777 ]
  - # 2
    frequency:    0.6352440869
    eigenvector:
    - # atom 1
      - [ -0.70710678118655,  0.00000000000000 ]
      - [  0.00000000000000,  0.00000000000000 ]
      - [ -0.00000000000000,  0.00000000000000 ]
    - # atom 2
      - [ -0.68405734201376, -0.00000000000000 ]
      - [ -0.00000000000000, -0.00000000000000 ]
      - [  0.00000000000000,  0.17906857021006 ]
  - # 3
    frequency:    3.0543446919
    eigenvector:
    - # atom 1
      - [  0.00000000000000,  0.00000000000000 ]
      - [ -0.65790194586962, -0.25916216857590 ]
      - [ -0.00000000000000,  0.00000000000000 ]
    - # atom 2
      - [  0.00000000000000,  0.00000000000000 ]
      - [ -0.65790194586962, -0.25916216857590 ]
      - [ -0.00000000000000,  0.00000000000000 ]
  - # 4
    frequency:   17.1476473623
    eigenvector:
    - # atom 1
      - [  0.00000000000000,  0.00000000000000 ]
      - [  0.64070040894127, -0.29917049651074 ]
      - [ -0.00000000000001,  0.00000000000000 ]
    - # atom 2
      - [ -0.00000000000000, -0.00000000000000 ]
      - [ -0.64070040894127,  0.29917049651074 ]
      - [  0.00000000000001, -0.00000000000000 ]
  - # 5
    frequency:   17.1671131498
    eigenvector:
    - # atom 1
      - [  0.00000000000000,  0.00000000000000 ]
      - [ -0.00000000000001,  0.00000000000000 ]
      - [ -0.68143614146697, -0.18879826562395 ]
    - # atom 2
      - [  0.04781149945513, -0.17256770658766 ]
      - [  0.00000000000001, -0.00000000000000 ]
      - [  0.65922348375984,  0.18264404075268 ]
  - # 6
    frequency:   17.1671131498
    eigenvector:
    - # atom 1
      - [  0.70710678118655,  0.00000000000000 ]
      - [  0.00000000000000,  0.00000000000000 ]
      - [ -0.00000000000000,  0.00000000000000 ]
    - # atom 2
      - [ -0.68405734201376, -0.00000000000000 ]
      - [ -0.00000000000000, -0.00000000000000 ]
      - [  0.00000000000000,  0.17906857021006 ]

- q-position: [    0.1020408,    0.0000000,    0.1020408 ]
  distance:    0.0391785
  band:
  - # 1
    frequency:    0.7047268832
    eigenvector:
    - # atom 1
      - [ -0.09334710895864,  0.00000000000000 ]
      - [  0.00000000000000,  0.00000000000000 ]
      - [ -0.37425038279490,  0.59264067378719 ]
    - # atom 2
      - [  0.07697244238509,  0.10518026907138 ]
      - [  0.00000000000000,  0.00000000000000 ]
      - [ -0.35916634032187,  0.59498898652928 ]
  - # 2
    frequency:    0.7047268832
    eigenvector:
    - # atom 1
      - [ -0.70091819583248,  0.00000000000000 ]
      - [  0.00000000000000,  0.00000000000000 ]
      - [  0.04984203787016, -0.07892689029656 ]
    - # atom 2
      - [ -0.69484972300758, -0.01400773170918 ]
      - [  0.00000000000000,  0.00000000000000 ]
      - [  0.04783317040940,  0.12124204591328 ]
  - # 3
    frequency:    3.3881045386
    eigenvector:
    - # atom 1
      - [  0.00000000000000,  0.00000000000000 ]
      - [  0.70250419490566,  0.08054722925065 ]
      - [  0.00000000000000, -0.00000000000000 ]
    - # atom 2
      - [  0.00000000000000, -0.00000000000000 ]
      - [  0.70250419490566,  0.08054722925065 ]
      - [  0.00000000000000, -0.00000000000000 ]
  - # 4
    frequency:   17.1270943649
    eigenvector:
    - # atom 1
      - [ -0.00000000000001,  0.00000000000000 ]
      - [ -0.70659257840836,  0.02696160488954 ]
      - [ -0.00000000000003,  0.00000000000001 ]
    - # atom 2
      - [  0.00000000000001, -0.00000000000001 ]
      - [  0.70659257840836, -0.02696160488954 ]
      - [  0.00000000000003, -0.00000000000001 ]
  - # 5
    frequency:   17.1520275451
    eigenvector:
    - # atom 1
      - [  0.03655094777709,  0.00000000000000 ]
      - [ -0.00000000000003,  0.00000000000001 ]
      - [  0.55873900805621, -0.43182722134316 ]
    - # atom 2
      - [  0.08628403515228,  0.15702941642743 ]
      - [  0.00000000000003, -0.00000000000001 ]
      - [ -0.53621921030498,  0.42469493304512 ]
  - # 6
    frequency:   17.1520275451
    eigenvector:
    - # atom 1
      - [  0.70616147460520,  0.00000000000000 ]
      - [ -0.00000000000001, -0.00000000000000 ]
      - [ -0.02892035467653,  0.02235139523133 ]
    - # atom 2
      - [ -0.68398155364100, -0.00812784923238 ]
      - [  0.00000000000001,  0.00000000000000 ]
      - [  0.02775472899295,  0.17701086792688 ]

- q-position: [    0.1122449,    0.0000000,    0.1122449 ]
  distance:    0.0430963
  band:
  - # 1
    frequency:    0.7738412126
    eigenvector:
    - # atom 1
      - [ -0.70063621119750,  0.00000000000000 ]
      - [  0.00000000000000, -0.00000000000000 ]
      - [ -0.04108531482928,  0.08614462527745 ]
    - # atom 2
      - [ -0.63981462185217,  0.01268425392655 ]
      - [  0.00000000000000, -0.00000000000000 ]
      - [ -0.03907829060934,  0.29824360273028 ]
  - # 2
    frequency:    0.7738412126
    eigenvector:
    - # atom 1
      - [  0.09544055510533,  0.00000000000000 ]
      - [  0.00000000000000, -0.00000000000000 ]
      - [ -0.30161035092550,  0.63239409916268 ]
    - # atom 2
      - [  0.28601706309384,  0.09311605117091 ]
      - [  0.00000000000000, -0.00000000000000 ]
      - [ -0.28687663690119,  0.57203621898773 ]
  - # 3
    frequency:    3.7201087719
    eigenvector:
    - # atom 1
      - [ -0.00000000000000,  0.00000000000000 ]
      - [ -0.70706749830638,  0.00745337767419 ]
      - [ -0.00000000000000,  0.00000000000000 ]
    - # atom 2
      - [ -0.00000000000000,  0.00000000000000 ]
      - [ -0.70706749830638,  0.00745337767419 ]
      - [ -0.00000000000000,  0.00000000000000 ]
  - # 4
    frequency:   17.1041810821
    eigenvector:
    - # atom 1
      - [  0.00000000000002,  0.00000000000000 ]
      - [ -0.70272996271336, -0.07855316355743 ]
      - [  0.00000000000004,  0.00000000000003 ]
    - # atom 2
      - [ -0.00000000000003,  0.00000000000001 ]
      - [  0.70272996271336,  0.07855316355743 ]
      - [ -0.00000000000004, -0.00000000000002 ]
  - # 5
    frequency:   17.1355510534
    eigenvector:
    - # atom 1
      - [ -0.04800205119388,  0.00000000000000 ]
      - [ -0.00000000000005, -0.00000000000001 ]
      - [ -0.56400956149714, -0.42377944454749 ]
    - # atom 2
      - [  0.17649041318105, -0.17412646160218 ]
      - [  0.00000000000005,  0.00000000000001 ]
      - [  0.53645760394472,  0.38825809533734 ]
  - # 6
    frequency:   17.1355510534
    eigenvector:
    - # atom 1
      - [  0.70547558645298,  0.00000000000000 ]
      - [  0.00000000000001,  0.00000000000000 ]
      - [ -0.03837640361298, -0.02883484982714 ]
    - # atom 2
      - [ -0.66211081845413, -0.01184793277690 ]
      - [ -0.00000000000001, -0.00000000000000 ]
      - [  0.03650171014049,  0.24522747752185 ]

- q-position: [    0.1224490,    0.0000000,    0.1224490 ]
  distance:    0.0470142
  band:
  - # 1
    frequency:    0.8425399945
    eigenvector:
    - # atom 1
      - [ -0.53118192793437, -0.00000000000000 ]
      - [ -0.00000000000000, -0.00000000000000 ]
      - [ -0.11691744143720,  0.45185846381772 ]
    - # atom 2
      - [ -0.34829141976998,  0.03931783521046 ]
      - [ -0.00000000000000, -0.00000000000000 ]
      - [ -0.11010811026707,  0.60417166335603 ]
  - # 2
    frequency:    0.8425399945