nqpoint: 500    
npath: 10     
segment_nqpoint:
- 50
- 50
- 50
- 50
- 50
- 50
- 50
- 50
- 50
- 50
labels:
- [ 'G', 'X' ]
- [ 'X', 'W' ]
- [ 'W', 'K' ]
- [ 'K', 'G' ]
- [ 'G', 'L' ]
- [ 'L', 'U' ]
- [ 'U', 'W' ]
- [ 'W', 'L' ]
- [ 'L', 'K|U' ]
- [ 'K|U', 'X' ]
reciprocal_lattice:
- [  -0.19197451,   0.19197451,   0.19197451 ] # a*
- [   0.19197451,  -0.19197451,   0.19197451 ] # b*
- [   0.19197451,   0.19197451,  -0.19197451 ] # c*
natom: 2      
lattice:
- [     0.000000000000000,     2.604512412393600,     2.604512412393600 ] # a
- [     2.604512412393600,     0.000000000000000,     2.604512412393600 ] # b
- [     2.604512412393600,     2.604512412393600,     0.000000000000000 ] # c
points:
- symbol: Si # 1
  coordinates: [  0.000000000000000,  0.000000000000000,  0.000000000000000 ]
  mass: 28.085000
  magnetic_moment: 0.00000000
- symbol: Si # 2
  coordinates: [  0.250000000000000,  0.250000000000000,  0.250000000000000 ]
  mass: 28.085000
  magnetic_moment: 0.00000000

phonon:
- q-position: [    0.0000000,    0.0000000,    0.0000000 ]
  distance:    0.0000000
  band:
  - # 1
    frequency:    0.0000002086
    eigenvector:
    - # atom 1
      - [  0.52689762767500,  0.00000000000000 ]
      - [  0.45921986643789,  0.00000000000000 ]
      - [ -0.10721942090509,  0.00000000000000 ]
    - # atom 2
      - [  0.52689762767500,  0.00000000000000 ]
      - [  0.45921986643789,  0.00000000000000 ]
      - [ -0.10721942090509,  0.00000000000000 ]
  - # 2
    frequency:    0.0000002422
    eigenvector:
    - # atom 1
      - [  0.45085184539395,  0.00000000000000 ]
      - [ -0.44342281735976,  0.00000000000000 ]
      - [  0.31639977646895,  0.00000000000000 ]
    - # atom 2
      - [  0.45085184539395,  0.00000000000000 ]
      - [ -0.44342281735976,  0.00000000000000 ]
      - [  0.31639977646895,  0.00000000000000 ]
  - # 3
    frequency:    0.0000004727
    eigenvector:
    - # atom 1
      - [ -0.13824436138712,  0.00000000000000 ]
      - [  0.30412714333564,  0.00000000000000 ]
      - [  0.62321358877288,  0.00000000000000 ]
    - # atom 2
      - [ -0.13824436138712,  0.00000000000000 ]
      - [  0.30412714333564,  0.00000000000000 ]
      - [  0.62321358877288,  0.00000000000000 ]
  - # 4
    frequency:   17.2581610805
    eigenvector:
    - # atom 1
      - [ -0.70710678118655,  0.00000000000000 ]
      - [  0.00000000000000,  0.00000000000000 ]
      - [ -0.00000000000000,  0.00000000000000 ]
    - # atom 2
      - [  0.70710678118655,  0.00000000000000 ]
      - [ -0.00000000000000,  0.00000000000000 ]
      - [ -0.00000000000000,  0.00000000000000 ]
  - # 5
    frequency:   17.2581610805
    eigenvector:
    - # atom 1
      - [  0.00000000000000,  0.00000000000000 ]
      - [ -0.07708806558454,  0.00000000000000 ]
      - [ -0.70289218955999,  0.00000000000000 ]
    - # atom 2
      - [ -0.00000000000000,  0.00000000000000 ]
      - [  0.07708806558454,  0.00000000000000 ]
      - [  0.70289218955999,  0.00000000000000 ]
  - # 6
    frequency:   17.2581610805
    eigenvector:
    - # atom 1
      - [  0.00000000000000,  0.00000000000000 ]
      - [ -0.70289218955999,  0.00000000000000 ]
      - [  0.07708806558454,  0.00000000000000 ]
    - # atom 2
      - [  0.00000000000000,  0.00000000000000 ]
      - [  0.70289218955999,  0.00000000000000 ]
      - [ -0.07708806558454,  0.00000000000000 ]

- q-position: [    0.0102041,    0.0000000,    0.0102041 ]
  distance:    0.0039178
  band:
  - # 1
    frequency:    0.0589222256
    eigenvector:
    - # atom 1
      - [ -0.69716029817971,  0.00000000000000 ]
      - [ -0.00000000000006,  0.00000000000000 ]
      - [ -0.11810272724984, -0.00438912954086 ]
    - # atom 2
      - [ -0.69700410800094,  0.00335131193325 ]
      - [ -0.00000000000006,  0.00000000000000 ]
      - [ -0.11805516884989,  0.01539542938565 ]
  - # 2
    frequency:    0.0589222256
    eigenvector:
    - # atom 1
      - [  0.11818425716641,  0.00000000000000 ]
      - [  0.00000000000024, -0.00000000000002 ]
      - [ -0.69667935915864, -0.02589115448044 ]
    - # atom 2
      - [  0.11740197219046,  0.01976914423879 ]
      - [  0.00000000000024, -0.00000000000002 ]
      - [ -0.69639881563208, -0.02923435390249 ]
  - # 3
    frequency:    0.3402110880
    eigenvector:
    - # atom 1
      - [  0.00000000000010,  0.00000000000000 ]
      - [ -0.70675712713609,  0.02223428079196 ]
      - [ -0.00000000000023, -0.00000000000002 ]
    - # atom 2
      - [  0.00000000000010,  0.00000000000001 ]
      - [ -0.70675712713609,  0.02223428079196 ]
      - [ -0.00000000000023, -0.00000000000002 ]
  - # 4
    frequency:   17.2570808650
    eigenvector:
    - # atom 1
      - [ -0.00000000000146,  0.00000000000000 ]
      - [  0.70700965463922, -0.01171956684031 ]
      - [  0.00000000000171, -0.00000000000089 ]
    - # atom 2
      - [  0.00000000000148,  0.00000000000005 ]
      - [ -0.70700965463922,  0.01171956684031 ]
      - [ -0.00000000000171,  0.00000000000085 ]
  - # 5
    frequency:   17.2573025925
    eigenvector:
    - # atom 1
      - [ -0.70706146885476,  0.00000000000000 ]
      - [ -0.00000000000144,  0.00000000000004 ]
      - [ -0.00790664417822, -0.00125069532220 ]
    - # atom 2
      - [  0.70681223462747, -0.00022436087297 ]
      - [  0.00000000000144, -0.00000000000004 ]
      - [  0.00790346027761, -0.01881355784419 ]
  - # 6
    frequency:   17.2573025925
    eigenvector:
    - # atom 1
      - [ -0.00800495227656,  0.00000000000000 ]
      - [ -0.00000000000158, -0.00000000000112 ]
      - [  0.69837811060243,  0.11047142332039 ]
    - # atom 2
      - [  0.00486696460592,  0.01981734842609 ]
      - [  0.00000000000158,  0.00000000000112 ]
      - [ -0.69809688301122, -0.11065408843287 ]

- q-position: [    0.0204082,    0.0000000,    0.0204082 ]
  distance:    0.0078357
  band:
  - # 1
    frequency:    0.1178306582
    eigenvector:
    - # atom 1
      - [ -0.68436687843972,  0.00000000000000 ]
      - [  0.00000000000001, -0.00000000000000 ]
      - [ -0.17747038108383, -0.01209295384236 ]
    - # atom 2
      - [ -0.68395044994049,  0.01007006542007 ]
      - [  0.00000000000001, -0.00000000000000 ]
      - [ -0.17718445175713,  0.02675903331886 ]
  - # 2
    frequency:    0.1178306582
    eigenvector:
    - # atom 1
      - [  0.17788191502981,  0.00000000000000 ]
      - [ -0.00000000000005, -0.00000000000001 ]
      - [ -0.68278357975567, -0.04652534278612 ]
    - # atom 2
      - [  0.17495537090131,  0.03874266384001 ]
      - [ -0.00000000000005, -0.00000000000001 ]
      - [ -0.68168352098503, -0.05654380079924 ]
  - # 3
    frequency:    0.6802459194
    eigenvector:
    - # atom 1
      - [  0.00000000000002,  0.00000000000000 ]
      - [  0.70529190672777,  0.05062930282267 ]
      - [ -0.00000000000005,  0.00000000000000 ]
    - # atom 2
      - [  0.00000000000002,  0.00000000000000 ]
      - [  0.70529190672777,  0.05062930282267 ]
      - [ -0.00000000000005,  0.00000000000000 ]
  - # 4
    frequency:   17.2538374194
    eigenvector:
    - # atom 1
      - [ -0.00000000000032,  0.00000000000000 ]
      - [ -0.70660024072511, -0.02676004124087 ]
      - [  0.00000000000224,  0.00000000000116 ]
    - # atom 2
      - [  0.00000000000025,  0.00000000000013 ]
      - [  0.70660024072511,  0.02676004124087 ]
      - [ -0.00000000000224, -0.00000000000118 ]
  - # 5
    frequency:   17.2547300811
    eigenvector:
    - # atom 1
      - [  0.01077142904916,  0.00000000000000 ]
      - [  0.00000000000238,  0.00000000000083 ]
      - [  0.50549775167768,  0.49432377989032 ]
    - # atom 2
      - [ -0.03880310906446,  0.02868307036929 ]
      - [ -0.00000000000238, -0.00000000000083 ]
      - [ -0.50468332489332, -0.49291616100078 ]
  - # 6
    frequency:   17.2547300811
    eigenvector:
    - # atom 1
      - [ -0.70702473529307,  0.00000000000000 ]
      - [  0.00000000000035,  0.00000000000002 ]
      - [  0.00770119190306,  0.00753095790940 ]
    - # atom 2
      - [  0.70545829731257,  0.00043698281258 ]
      - [ -0.00000000000035, -0.00000000000002 ]
      - [ -0.00768878421789, -0.04763698559028 ]

- q-position: [    0.0306122,    0.0000000,    0.0306122 ]
  distance:    0.0117535
  band:
  - # 1
    frequency:    0.1767111287
    eigenvector:
    - # atom 1
      - [  0.06295181102799, -0.00000000000000 ]
      - [  0.00000000000000,  0.00000000000000 ]
      - [  0.69834869288704,  0.09135738958209 ]
    - # atom 2
      - [  0.07049689556523, -0.05942081322397 ]
      - [  0.00000000000000,  0.00000000000000 ]
      - [  0.69581611350474,  0.08566966124962 ]
  - # 2
    frequency:    0.1767111287
    eigenvector:
    - # atom 1
      - [ -0.70429899154286,  0.00000000000000 ]
      - [  0.00000000000000,  0.00000000000000 ]
      - [  0.06241996009389,  0.00816572676383 ]
    - # atom 2
      - [ -0.70105003116972, -0.00531116450559 ]
      - [  0.00000000000000,  0.00000000000000 ]
      - [  0.06219359251336,  0.06806322339425 ]
  - # 3
    frequency:    1.0199284494
    eigenvector:
    - # atom 1
      - [  0.00000000000000,  0.00000000000000 ]
      - [  0.62594752513989,  0.32892202080622 ]
      - [ -0.00000000000001, -0.00000000000000 ]
    - # atom 2
      - [  0.00000000000000,  0.00000000000000 ]
      - [  0.62594752513989,  0.32892202080622 ]
      - [ -0.00000000000001, -0.00000000000000 ]
  - # 4
    frequency:   17.2484223588
    eigenvector:
    - # atom 1
      - [ -0.00000000000002,  0.00000000000000 ]
      - [ -0.69522847330268, -0.12906343366435 ]
      - [  0.00000000000148,  0.00000000000069 ]
    - # atom 2
      - [ -0.00000000000004,  0.00000000000013 ]
      - [  0.69522847330267,  0.12906343366435 ]
      - [ -0.00000000000147, -0.00000000000069 ]
  - # 5
    frequency:   17.2504524004
    eigenvector:
    - # atom 1
      - [  0.01939110830196,  0.00000000000000 ]
      - [  0.00000000000157,  0.00000000000043 ]
      - [  0.61334193053533,  0.35133411614305 ]
    - # atom 2
      - [ -0.04921496218125,  0.05218779195548 ]
      - [ -0.00000000000157, -0.00000000000043 ]
      - [ -0.61111763034919, -0.34841005115337 ]
  - # 6
    frequency:   17.2504524004
    eigenvector:
    - # atom 1
      - [ -0.70684084836604,  0.00000000000000 ]
      - [  0.00000000000006,  0.00000000000002 ]
      - [  0.01682610707719,  0.00963831944921 ]
    - # atom 2
      - [  0.70345737050893,  0.00143169304404 ]
      - [ -0.00000000000006, -0.00000000000002 ]
      - [ -0.01676508676986, -0.06974675617754 ]

- q-position: [    0.0408163,    0.0000000,    0.0408163 ]
  distance:    0.0156714
  band:
  - # 1
    frequency:    0.2355487189
    eigenvector:
    - # atom 1
      - [ -0.64898314031734,  0.00000000000000 ]
      - [ -0.00000000000001, -0.00000000000000 ]
      - [ -0.28018293744912, -0.01784391062043 ]
    - # atom 2
      - [ -0.64682021856523,  0.03177324484411 ]
      - [ -0.00000000000001, -0.00000000000000 ]
      - [ -0.27837553655034,  0.05586704232026 ]
  - # 2
    frequency:    0.2355487189
    eigenvector:
    - # atom 1
      - [  0.28075057183173,  0.00000000000000 ]
      - [ -0.00000000000003, -0.00000000000000 ]
      - [ -0.64767099643895, -0.04124799131997 ]
    - # atom 2
      - [  0.27426191345750,  0.07344704618933 ]
      - [ -0.00000000000003, -0.00000000000000 ]
      - [ -0.64349300775866, -0.07281952484334 ]
  - # 3
    frequency:    1.3590830571
    eigenvector:
    - # atom 1
      - [  0.00000000000000,  0.00000000000000 ]
      - [  0.69472628249117,  0.13173986646420 ]
      - [ -0.00000000000003, -0.00000000000000 ]
    - # atom 2
      - [  0.00000000000000,  0.00000000000000 ]
      - [  0.69472628249117,  0.13173986646420 ]
      - [ -0.00000000000003, -0.00000000000000 ]
  - # 4
    frequency:   17.2408217466
    eigenvector:
    - # atom 1
      - [  0.00000000000005,  0.00000000000000 ]
      - [  0.70439153514518,  0.06190771531732 ]
      - [  0.00000000000027, -0.00000000000001 ]
    - # atom 2
      - [ -0.00000000000005,  0.00000000000003 ]
      - [ -0.70439153514518, -0.06190771531732 ]
      - [ -0.00000000000026,  0.00000000000001 ]
  - # 5
    frequency:   17.2444842914
    eigenvector:
    - # atom 1
      - [ -0.07744881309713,  0.00000000000000 ]
      - [ -0.00000000000026,  0.00000000000003 ]
      - [  0.68610091924872, -0.15253593004896 ]
    - # atom 2
      - [  0.09424705370885,  0.07780506797999 ]
      - [  0.00000000000026, -0.00000000000003 ]
      - [ -0.68167502726048,  0.14276911946656 ]
  - # 6
    frequency:   17.2444842914
    eigenvector:
    - # atom 1
      - [  0.70285253172330, -0.00000000000000 ]
      - [ -0.00000000000008, -0.00000000000000 ]
      - [  0.07560291734366, -0.01680825806801 ]
    - # atom 2
      - [ -0.69641249217996,  0.00857350567297 ]
      - [  0.00000000000008,  0.00000000000000 ]
      - [ -0.07511521890635,  0.09640456226145 ]

- q-position: [    0.0510204,    0.0000000,    0.0510204 ]
  distance:    0.0195892
  band:
  - # 1
    frequency:    0.2943273958
    eigenvector:
    - # atom 1
      - [ -0.30546016326990,  0.00000000000000 ]
      - [ -0.00000000000000,  0.00000000000000 ]
      - [ -0.63055074534091,  0.09539311403422 ]
    - # atom 2
      - [ -0.28886438644781,  0.08933259539458 ]
      - [ -0.00000000000000,  0.00000000000000 ]
      - [ -0.62419061980300,  0.13770665848878 ]
  - # 2
    frequency:    0.2943273958
    eigenvector:
    - # atom 1
      - [ -0.63772571584901,  0.00000000000000 ]
      - [ -0.00000000000000,  0.00000000000000 ]
      - [  0.30202347002014, -0.04569173778562 ]
    - # atom 2
      - [ -0.63776654668318, -0.04278884871096 ]
      - [ -0.00000000000000,  0.00000000000000 ]
      - [  0.29897707415284,  0.04511823898170 ]
  - # 3
    frequency:    1.6975347570
    eigenvector:
    - # atom 1
      - [ -0.00000000000000, -0.00000000000000 ]
      - [  0.68145351961574, -0.18873553084493 ]
      - [ -0.00000000000000, -0.00000000000000 ]
    - # atom 2
      - [ -0.00000000000000,  0.00000000000000 ]
      - [  0.68145351961574, -0.18873553084493 ]
      - [ -0.00000000000000, -0.00000000000000 ]
  - # 4
    frequency:   17.2310161524
    eigenvector:
    - # atom 1
      - [ -0.00000000000003,  0.00000000000000 ]
      - [  0.70110841487325, -0.09190751108542 ]
      - [ -0.00000000000005, -0.00000000000002 ]
    - # atom 2
      - [  0.00000000000003, -0.00000000000001 ]
      - [ -0.70110841487325,  0.09190751108542 ]
      - [  0.00000000000005,  0.00000000000001 ]
  - # 5
    frequency:   17.2368463592
    eigenvector:
    - # atom 1
      - [  0.69935925588167,  0.00000000000000 ]
      - [  0.00000000000002, -0.00000000000001 ]
      - [ -0.08055073095166, -0.06639435936722 ]
    - # atom 2
      - [ -0.68289873595994, -0.01141193775443 ]
      - [ -0.00000000000002,  0.00000000000001 ]
      - [  0.07973824636607,  0.16480563147982 ]
  - # 6
    frequency:   17.2368463592
    eigenvector:
    - # atom 1
      - [ -0.10438693027689,  0.00000000000000 ]
      - [ -0.00000000000005, -0.00000000000001 ]
      - [ -0.53966429618780, -0.44482110584761 ]
    - # atom 2
      - [  0.16635356845674, -0.07645635593402 ]
      - [  0.00000000000005,  0.00000000000001 ]
      - [  0.53422090769378,  0.42554545900742 ]

- q-position: [    0.0612245,    0.0000000,    0.0612245 ]
  distance:    0.0235071
  band:
  - # 1
    frequency:    0.3530296544
    eigenvector:
    - # atom 1
      - [ -0.70448686215908,  0.00000000000000 ]
      - [ -0.00000000000000,  0.00000000000000 ]
      - [ -0.05914640891821,  0.01414084005038 ]
    - # atom 2
      - [ -0.69184300148971,  0.01004854504595 ]
      - [ -0.00000000000000,  0.00000000000000 ]
      - [ -0.05828657161285,  0.13362246668052 ]
  - # 2
    frequency:    0.3530296544
    eigenvector:
    - # atom 1
      - [  0.06081332950308,  0.00000000000000 ]
      - [  0.00000000000001, -0.00000000000000 ]
      - [ -0.68517656190252,  0.16381336323448 ]
    - # atom 2
      - [  0.08775995938933,  0.11640651854664 ]
      - [  0.00000000000001, -0.00000000000000 ]
      - [ -0.67521584950326,  0.15110019373722 ]
  - # 3
    frequency:    2.0351094088
    eigenvector:
    - # atom 1
      - [ -0.00000000000000,  0.00000000000000 ]
      - [  0.68499926661611, -0.17543091157318 ]
      - [  0.00000000000001, -0.00000000000000 ]
    - # atom 2
      - [ -0.00000000000000, -0.00000000000000 ]
      - [  0.68499926661611, -0.17543091157318 ]
      - [  0.00000000000001, -0.00000000000000 ]
  - # 4
    frequency:   17.2189807323
    eigenvector:
    - # atom 1
      - [ -0.00000000000008,  0.00000000000000 ]
      - [  0.70708409263530, -0.00566444543726 ]
      - [ -0.00000000000007, -0.00000000000000 ]
    - # atom 2
      - [  0.00000000000008, -0.00000000000001 ]
      - [ -0.70708409263530,  0.00566444543726 ]
      - [  0.00000000000007, -0.00000000000001 ]
  - # 5
    frequency:   17.2275650398
    eigenvector:
    - # atom 1
      - [  0.68164786539467,  0.00000000000000 ]
      - [  0.00000000000009, -0.00000000000001 ]
      - [  0.15519355583291, -0.10616566220217 ]
    - # atom 2
      - [ -0.65370167672507,  0.02636625731216 ]
      - [ -0.00000000000009,  0.00000000000001 ]
      - [ -0.15293743899847,  0.22042930402915 ]
  - # 6
    frequency:   17.2275650398
    eigenvector:
    - # atom 1
      - [ -0.18803241104365,  0.00000000000000 ]
      - [  0.00000000000004, -0.00000000000004 ]
      - [  0.56260171036127, -0.38486767582597 ]
    - # atom 2
      - [  0.25068512256766,  0.09558194204672 ]
      - [ -0.00000000000004,  0.00000000000004 ]
      - [ -0.55442292237605,  0.34732734534126 ]

- q-position: [    0.0714286,    0.0000000,    0.0714286 ]
  distance:    0.0274249
  band:
  - # 1
    frequency:    0.4116361744
    eigenvector:
    - # atom 1
      - [ -0.00247138507253,  0.00000000000000 ]
      - [ -0.00000000000000,  0.00000000000000 ]
      - [  0.69224625729278, -0.14418395028561 ]
    - # atom 2
      - [ -0.03097755220819, -0.13709691020957 ]
      - [ -0.00000000000000,  0.00000000000000 ]
      - [  0.67853468440961, -0.14083859742034 ]
  - # 2
    frequency:    0.4116361744
    eigenvector:
    - # atom 1
      - [ -0.70710246234603,  0.00000000000000 ]
      - [  0.00000000000000,  0.00000000000000 ]
      - [ -0.00241946133396,  0.00050393554175 ]
    - # atom 2
      - [ -0.69299682457454,  0.00047916571561 ]
      - [  0.00000000000000,  0.00000000000000 ]
      - [ -0.00237153818512,  0.14053308271172 ]
  - # 3
    frequency:    2.3716339273
    eigenvector:
    - # atom 1
      - [  0.00000000000000,  0.00000000000000 ]
      - [  0.70555103181237,  0.04688007581584 ]
      - [  0.00000000000000,  0.00000000000000 ]
    - # atom 2
      - [  0.00000000000000, -0.00000000000000 ]
      - [  0.70555103181237,  0.04688007581584 ]
      - [  0.00000000000000, -0.00000000000000 ]
  - # 4
    frequency:   17.2046853309
    eigenvector:
    - # atom 1
      - [ -0.00000000000001,  0.00000000000000 ]
      - [ -0.70437113412701, -0.06213940302761 ]
      - [  0.00000000000002,  0.00000000000002 ]
    - # atom 2
      - [  0.00000000000001,  0.00000000000000 ]
      - [  0.70437113412701,  0.06213940302761 ]
      - [ -0.00000000000002, -0.00000000000002 ]
  - # 5
    frequency:   17.2166725574
    eigenvector:
    - # atom 1
      - [  0.15864983016003,  0.00000000000000 ]
      - [  0.00000000000001, -0.00000000000003 ]
      - [  0.58142322111226, -0.36983411057072 ]
    - # atom 2
      - [ -0.08226306461032,  0.11514880188781 ]
      - [ -0.00000000000001,  0.00000000000003 ]
      - [ -0.56990676033221,  0.39392870694119 ]
  - # 6
    frequency:   17.2166725574
    eigenvector:
    - # atom 1
      - [ -0.68907926350326,  0.00000000000000 ]
      - [  0.00000000000002, -0.00000000000000 ]
      - [  0.13386369343289, -0.08514857714791 ]
    - # atom 2
      - [  0.69229379340280,  0.02651122857733 ]
      - [ -0.00000000000002,  0.00000000000000 ]
      - [ -0.13121220666849, -0.05300768997481 ]

- q-position: [    0.0816327,    0.0000000,    0.0816327 ]
  distance:    0.0313428
  band:
  - # 1
    frequency:    0.4701254927
    eigenvector:
    - # atom 1
      - [  0.06279757173303, -0.00000000000000 ]
      - [ -0.00000000000001, -0.00000000000000 ]
      - [ -0.68614466101984,  0.15894014325651 ]
    - # atom 2
      - [  0.09711101077370,  0.15515286188375 ]
      - [ -0.00000000000001, -0.00000000000000 ]
      - [ -0.66837271435578,  0.14062345373541 ]
  - # 2
    frequency:    0.4701254927
    eigenvector:
    - # atom 1
      - [ -0.70431276077069,  0.00000000000000 ]
      - [  0.00000000000000,  0.00000000000000 ]
      - [ -0.06117767697760,  0.01417133921652 ]
    - # atom 2
      - [ -0.68286577809866,  0.01383365958480 ]
      - [  0.00000000000000,  0.00000000000000 ]
      - [ -0.05959310381971,  0.17306536609426 ]
  - # 3
    frequency:    2.7069364905
    eigenvector:
    - # atom 1
      - [  0.00000000000000,  0.00000000000000 ]
      - [  0.69199206192596,  0.14542003380365 ]
      - [ -0.00000000000001,  0.00000000000000 ]
    - # atom 2
      - [  0.00000000000000,  0.00000000000000 ]
      - [  0.69199206192596,  0.14542003380365 ]
      - [ -0.00000000000001,  0.00000000000000 ]
  - # 4
    frequency:   17.1880946059
    eigenvector:
    - # atom 1
      - [ -0.00000000000001,  0.00000000000000 ]
      - [  0.68831624066102, -0.16192823361688 ]
      - [ -0.00000000000004, -0.00000000000001 ]
    - # atom 2
      - [  0.00000000000001, -0.00000000000001 ]
      - [ -0.68831624066102,  0.16192823361688 ]
      - [  0.00000000000004,  0.00000000000001 ]
  - # 5
    frequency:   17.2042068710
    eigenvector:
    - # atom 1
      - [  0.70680763445992,  0.00000000000000 ]
      - [  0.00000000000001, -0.00000000000000 ]
      - [  0.01929985247749, -0.00710517864105 ]
    - # atom 2
      - [ -0.68689385073767,  0.00436413414828 ]
      - [ -0.00000000000001,  0.00000000000000 ]
      - [ -0.01879996379754,  0.16674637481254 ]
  - # 6
    frequency:   17.2042068710
    eigenvector:
    - # atom 1
      - [  0.02056618265926,  0.00000000000000 ]
      - [ -0.00000000000003,  0.00000000000003 ]
      - [ -0.66328707184257,  0.24418700304754 ]
    - # atom 2
      - [ -0.07524971134922, -0.14998424281828 ]
      - [  0.00000000000003, -0.00000000000003 ]
      - [  0.64610716338678, -0.23321179487404 ]

- q-position: [    0.0918367,    0.0000000,    0.0918367 ]
  distance:    0.0352606
  band:
  - # 1
    frequency:    0.5284736939
    eigenvector:
    - # atom 1
      - [ -0.15743117517729,  0.00000000000000 ]
      - [ -0.00000000000000, -0.00000000000000 ]
      - [ -0.65194596912831,  0.22401312108814 ]
    - # atom 2
      - [ -0.09534002215355,  0.16566488851389 ]
      - [ -0.00000000000000, -0.00000000000000 ]
      - [ -0.63054634355956,  0.25666463237679 ]
  - # 2
    frequency:    0.5284736939
    eigenvector:
    - # atom 1
      - [  0.68935870566948,  0.00000000000000 ]
      - [  0.00000000000000, -0.00000000000000 ]
      - [ -0.14888710221232,  0.05115863282497 ]
    - # atom 2
      - [  0.67973086950262,  0.03783344994393 ]
      - [  0.00000000000000, -0.00000000000000 ]
      - [ -0.14399999746709, -0.12569238576793 ]
  - # 3
    frequency:    3.0408467459
    eigenvector:
    - # atom 1
      - [ -0.00000000000000, -0.00000000000000 ]
      - [  0.67150219879433, -0.22155089034889 ]
      - [  0.00000000000000,  0.00000000000000 ]
    - # atom 2
      - [ -0.00000000000000,  0.00000000000000 ]
      - [  0.67150219879433, -0.22155089034889 ]
      - [  0.00000000000000,  0.00000000000000 ]
  - # 4
    frequency:   17.1691681719
    eigenvector:
    - # atom 1
      - [ -0.00000000000001,  0.00000000000000 ]
      - [  0.70026311841728, -0.09814053690760 ]
      - [ -0.00000000000002, -0.00000000000000 ]
    - # atom 2
      - [  0.00000000000001, -0.00000000000000 ]
      - [ -0.70026311841728,  0.09814053690760 ]
      - [  0.00000000000002,  0.00000000000000 ]
  - # 5
    frequency:   17.1902116099
    eigenvector:
    - # atom 1
      - [ -0.03564131169768,  0.00000000000000 ]
      - [ -0.00000000000000,  0.00000000000002 ]
      - [ -0.35508250324460,  0.61044746931249 ]
    - # atom 2
      - [ -0.12064836182938, -0.09022941485764 ]
      - [  0.00000000000000, -0.00000000000002 ]
      - [  0.34342719287339, -0.59946675360477 ]
  - # 6
    frequency:   17.1902116099
    eigenvector:
    - # atom 1
      - [ -0.70620797000634,  0.00000000000000 ]
      - [ -0.00000000000001,  0.00000000000000 ]
      - [  0.01792050885013, -0.03080841544259 ]
    - # atom 2
      - [  0.69085591033244,  0.00455375022065 ]
      - [  0.00000000000001, -0.00000000000000 ]
      - [ -0.01733228191484, -0.14965616098675 ]

- q-position: [    0.1020408,    0.0000000,    0.1020408 ]
  distance:    0.0391785
  band:
  - # 1
    frequency:    0.5866541234
    eigenvector:
    - # atom 1
      - [ -0.12826900028546,  0.00000000000000 ]
      - [  0.00000000000000,  0.00000000000000 ]
      - [ -0.68939733181411, -0.09098561673886 ]
    - # atom 2
      - [ -0.14872050926139,  0.19440278655424 ]
      - [  0.00000000000000,  0.00000000000000 ]
      - [ -0.66141986490607, -0.05112268589008 ]
  - # 2
    frequency:    0.5866541234
    eigenvector:
    - # atom 1
      - [ -0.69537548386880,  0.00000000000000 ]
      - [ -0.00000000000000,  0.00000000000000 ]
      - [  0.12716627002620,  0.01678321190520 ]
    - # atom 2
      - [ -0.66242271961814, -0.03585954877973 ]
      - [ -0.00000000000000,  0.00000000000000 ]
      - [  0.12200554493011,  0.21219066968491 ]
  - # 3
    frequency:    3.3731960155
    eigenvector:
    - # atom 1
      - [ -0.00000000000000,  0.00000000000000 ]
      - [  0.64355135802075, -0.29298745636912 ]
      - [  0.00000000000000, -0.00000000000000 ]
    - # atom 2
      - [ -0.00000000000000, -0.00000000000000 ]
      - [  0.64355135802075, -0.29298745636912 ]
      - [  0.00000000000000, -0.00000000000000 ]
  - # 4
    frequency:   17.1478607658
    eigenvector:
    - # atom 1
      - [  0.00000000000001,  0.00000000000000 ]
      - [ -0.69618637743314,  0.12379227712794 ]
      - [  0.00000000000000,  0.00000000000000 ]
    - # atom 2
      - [ -0.00000000000001,  0.00000000000000 ]
      - [  0.69618637743314, -0.12379227712794 ]
      - [ -0.00000000000000, -0.00000000000000 ]
  - # 5
    frequency:   17.1747359983
    eigenvector:
    - # atom 1
      - [  0.04407232879071,  0.00000000000000 ]
      - [ -0.00000000000000, -0.00000000000000 ]
      - [  0.37985405939086, -0.59478443439556 ]
    - # atom 2
      - [  0.12543918245691,  0.10711484396843 ]
      - [  0.00000000000000,  0.00000000000000 ]
      - [ -0.36443863219661,  0.58307452788544 ]
  - # 6
    frequency:   17.1747359983
    eigenvector:
    - # atom 1
      - [  0.70573198158718,  0.00000000000000 ]
      - [  0.00000000000001, -0.00000000000000 ]
      - [ -0.02372154505498,  0.03714375405423 ]
    - # atom 2
      - [ -0.68756576119201, -0.00668922586040 ]
      - [ -0.00000000000001,  0.00000000000000 ]
      - [  0.02275886546347,  0.16337261807492 ]

- q-position: [    0.1122449,    0.0000000,    0.1122449 ]
  distance:    0.0430963
  band:
  - # 1
    frequency:    0.6446371240
    eigenvector:
    - # atom 1
      - [ -0.08750557124749,  0.00000000000000 ]
      - [ -0.00000000000000, -0.00000000000000 ]
      - [ -0.67376145558201, -0.19592926267574 ]
    - # atom 2
      - [ -0.14389118786497,  0.20869850974883 ]
      - [ -0.00000000000000, -0.00000000000000 ]
      - [ -0.64062425106814, -0.15918802413127 ]
  - # 2
    frequency:    0.6446371240
    eigenvector:
    - # atom 1
      - [ -0.70167141526547,  0.00000000000000 ]
      - [  0.00000000000000,  0.00000000000000 ]
      - [  0.08402491504223,  0.02443437438313 ]
    - # atom 2
      - [ -0.65959295192401, -0.02602682953411 ]
      - [ -0.00000000000000,  0.00000000000000 ]
      - [  0.07989236817279,  0.24057629023725 ]
  - # 3
    frequency:    3.7038174982
    eigenvector:
    - # atom 1
      - [ -0.00000000000000,  0.00000000000000 ]
      - [ -0.01268942529763, -0.70699291261343 ]
      - [  0.00000000000000,  0.00000000000000 ]
    - # atom 2
      - [  0.00000000000000, -0.00000000000000 ]
      - [ -0.01268942529763, -0.70699291261343 ]
      - [  0.00000000000000,  0.00000000000000 ]
  - # 4
    frequency:   17.1241224305
    eigenvector:
    - # atom 1
      - [  0.00000000000000,  0.00000000000000 ]
      - [ -0.08586824599460,  0.70187366693003 ]
      - [  0.00000000000001,  0.00000000000007 ]
    - # atom 2
      - [ -0.00000000000002,  0.00000000000000 ]
      - [  0.08586824599460, -0.70187366693003 ]
      - [ -0.00000000000001, -0.00000000000006 ]
  - # 5
    frequency:   17.1578347662
    eigenvector:
    - # atom 1
      - [  0.02501565007311,  0.00000000000000 ]
      - [ -0.00000000000002, -0.00000000000006 ]
      - [  0.39529988597226,  0.58575781463139 ]
    - # atom 2
      - [ -0.20522458495482,  0.12244466705954 ]
      - [  0.00000000000002,  0.00000000000006 ]
      - [ -0.37585808938795, -0.54920020928660 ]
  - # 6
    frequency:   17.1578347662
    eigenvector:
    - # atom 1
      - [  0.70666414742183,  0.00000000000000 ]
      - [  0.00000000000000,  0.00000000000000 ]
      - [ -0.01399347010528, -0.02073561050446 ]
    - # atom 2
      - [ -0.66548582658305, -0.00433449603416 ]
      - [ -0.00000000000000, -0.00000000000000 ]
      - [  0.01330523767985,  0.23860594588459 ]

- q-position: [    0.1224490,    0.0000000,    0.1224490 ]
  distance:    0.0470142
  band:
  - # 1
    frequency:    0.7023897992
    eigenvector:
    - # atom 1
      - [ -0.70619379290253,  0.00000000000000 ]
      - [  0.00000000000000,  0.00000000000000 ]
      - [  0.02481307046418,  0.02597380218753 ]
    - # atom 2
      - [ -0.65602611129266, -0.00837138658159 ]
      - [  0.00000000000000,  0.00000000000000 ]
      - [  0.02335826090619,  0.26270525848633 ]
  - # 2
    frequency:    0.7023897992