   2    8
1 1
    17.478744272228401    -0.000000000000001     0.000000000000000
     0.000000000000000    17.478744272228401     0.000000000000001
    -0.000000000000000    -0.000000000000000    17.478744272228401
1 2
     1.828603677814641    -0.000000000000000    -0.000000000000000
     0.000000000000000    -1.097060575867960    -0.000000000000000
    -0.000000000000000     0.000000000000000    -1.097060575867960
1 3
    -1.097060575867960    -0.000000000000000    -0.000000000000000
    -0.000000000000000     1.828603677814640     0.000000000000000
    -0.000000000000000    -0.000000000000000    -1.097060575867960
1 4
    -1.097060575867960     0.000000000000000     0.000000000000000
    -0.000000000000000    -1.097060575867960     0.000000000000000
     0.000000000000000     0.000000000000000     1.828603677814640
1 5
    -4.278306699576778    -3.787295221214835    -3.787295221214834
    -3.787295221214833    -4.278306699576778    -3.787295221214835
    -3.787295221214835    -3.787295221214833    -4.278306699576778
1 6
    -4.278306699576778     3.787295221214834     3.787295221214834
     3.787295221214835    -4.278306699576778    -3.787295221214833
     3.787295221214834    -3.787295221214834    -4.278306699576778
1 7
    -4.278306699576778     3.787295221214833    -3.787295221214835
     3.787295221214833    -4.278306699576778     3.787295221214834
    -3.787295221214834     3.787295221214834    -4.278306699576778
1 8
    -4.278306699576778    -3.787295221214834     3.787295221214834
    -3.787295221214834    -4.278306699576778     3.787295221214833
     3.787295221214833     3.787295221214834    -4.278306699576778
5 1
    -4.278306699576778    -3.787295221214834    -3.787295221214834
    -3.787295221214834    -4.278306699576778    -3.787295221214834
    -3.787295221214834    -3.787295221214834    -4.278306699576778
5 2
    -4.278306699576778     3.787295221214833     3.787295221214835
     3.787295221214834    -4.278306699576778    -3.787295221214833
     3.787295221214833    -3.787295221214835    -4.278306699576778
5 3
    -4.278306699576778     3.787295221214833    -3.787295221214833
     3.787295221214833    -4.278306699576778     3.787295221214835
    -3.787295221214834     3.787295221214833    -4.278306699576778
5 4
    -4.278306699576778    -3.787295221214836     3.787295221214834
    -3.787295221214835    -4.278306699576778     3.787295221214835
     3.787295221214834     3.787295221214834    -4.278306699576778
5 5
    17.478744272228401     0.000000000000002    -0.000000000000002
     0.000000000000003    17.478744272228401    -0.000000000000001
    -0.000000000000001    -0.000000000000001    17.478744272228401
5 6
     1.828603677814640     0.000000000000000    -0.000000000000000
     0.000000000000000    -1.097060575867960     0.000000000000000
    -0.000000000000000     0.000000000000000    -1.097060575867960
5 7
    -1.097060575867960    -0.000000000000000     0.000000000000000
     0.000000000000000     1.828603677814641    -0.000000000000000
     0.000000000000000    -0.000000000000000    -1.097060575867960
5 8
    -1.097060575867960    -0.000000000000000     0.000000000000000
    -0.000000000000000    -1.097060575867960    -0.000000000000000
    -0.000000000000000    -0.000000000000000     1.828603677814640