8    
1    

1    
  0.0100000000000000  -0.0000000000000000  -0.0000000000000000
  -0.1747874427    0.0000000077   -0.0000000062
  -0.0182860368    0.0000000066   -0.0000000031
   0.0109706118    0.0000000087   -0.0000000006
   0.0109705997   -0.0000000035   -0.0000000008
   0.0429965517    0.0383466481    0.0383466511
   0.0429965490   -0.0383466746   -0.0383466435
   0.0425695852   -0.0373992467    0.0373992515
   0.0425695822    0.0373992537   -0.0373992485
