   2    8
1 1
    17.531326641917303    -0.000000000000001    -0.000000000000000
     0.000000000000000    17.531326641917300     0.000000000000001
    -0.000000000000000    -0.000000000000000    17.531326641917300
1 2
     1.797776854339900    -0.000000000000000    -0.000000000000000
     0.000000000000000    -1.132535290801415    -0.000000000000000
    -0.000000000000000    -0.000000000000000    -1.132535290801415
1 3
    -1.132535290801415    -0.000000000000000    -0.000000000000000
    -0.000000000000000     1.797776854339900     0.000000000000000
    -0.000000000000000    -0.000000000000000    -1.132535290801415
1 4
    -1.132535290801415     0.000000000000000     0.000000000000000
    -0.000000000000000    -1.132535290801415     0.000000000000000
     0.000000000000000     0.000000000000000     1.797776854339900
1 5
    -4.266008228663595    -3.762637074911878    -3.762637074911878
    -3.762637074911877    -4.266008228663596    -3.762637074911877
    -3.762637074911877    -3.762637074911877    -4.266008228663596
1 6
    -4.266008228663596     3.762637074911878     3.762637074911878
     3.762637074911877    -4.266008228663596    -3.762637074911878
     3.762637074911877    -3.762637074911877    -4.266008228663596
1 7
    -4.266008228663596     3.762637074911878    -3.762637074911878
     3.762637074911877    -4.266008228663595     3.762637074911877
    -3.762637074911877     3.762637074911877    -4.266008228663596
1 8
    -4.266008228663595    -3.762637074911878     3.762637074911878
    -3.762637074911877    -4.266008228663596     3.762637074911877
     3.762637074911877     3.762637074911877    -4.266008228663596
5 1
    -4.266008228663595    -3.762637074911878    -3.762637074911877
    -3.762637074911879    -4.266008228663596    -3.762637074911878
    -3.762637074911877    -3.762637074911877    -4.266008228663596
5 2
    -4.266008228663596     3.762637074911876     3.762637074911877
     3.762637074911877    -4.266008228663595    -3.762637074911878
     3.762637074911877    -3.762637074911877    -4.266008228663596
5 3
    -4.266008228663596     3.762637074911876    -3.762637074911877
     3.762637074911877    -4.266008228663595     3.762637074911878
    -3.762637074911877     3.762637074911878    -4.266008228663596
5 4
    -4.266008228663596    -3.762637074911878     3.762637074911878
    -3.762637074911879    -4.266008228663596     3.762637074911879
     3.762637074911878     3.762637074911878    -4.266008228663596
5 5
    17.531326641917300     0.000000000000002    -0.000000000000002
     0.000000000000003    17.531326641917303    -0.000000000000001
    -0.000000000000001    -0.000000000000001    17.531326641917300
5 6
     1.797776854339900     0.000000000000000    -0.000000000000000
     0.000000000000000    -1.132535290801415     0.000000000000000
    -0.000000000000000     0.000000000000000    -1.132535290801415
5 7
    -1.132535290801415    -0.000000000000000     0.000000000000000
     0.000000000000000     1.797776854339900    -0.000000000000000
     0.000000000000000    -0.000000000000000    -1.132535290801415
5 8
    -1.132535290801415    -0.000000000000000     0.000000000000000
    -0.000000000000000    -1.132535290801415    -0.000000000000000
    -0.000000000000000    -0.000000000000000     1.797776854339900