8    
1    

1    
  0.0100000000000000  -0.0000000000000000  -0.0000000000000000
  -0.1753132664   -0.0000000025    0.0000000083
  -0.0179777685   -0.0000000038   -0.0000000014
   0.0113253534    0.0000000068   -0.0000000044
   0.0113253524   -0.0000000039   -0.0000000011
   0.0428556377    0.0380813859    0.0380813871
   0.0428556224   -0.0380813822   -0.0380813864
   0.0424645397   -0.0371713550    0.0371713563
   0.0424645294    0.0371713548   -0.0371713584
