phonopy:
  version: "2.38.2"
  frequency_unit_conversion_factor: 15.633304
  symmetry_tolerance: 1.00000e-05

magnetic_space_group:
  uni_number: 1631
  msg_type: 2

supercell_matrix:
- [  -1,   1,   1 ]
- [   1,  -1,   1 ]
- [   1,   1,  -1 ]

primitive_cell:
  lattice:
  - [     0.000000000000000,     2.604512412393600,     2.604512412393600 ] # a
  - [     2.604512412393600,     0.000000000000000,     2.604512412393600 ] # b
  - [     2.604512412393600,     2.604512412393600,     0.000000000000000 ] # c
  points:
  - symbol: Si # 1
    coordinates: [  0.000000000000000,  0.000000000000000,  0.000000000000000 ]
    mass: 28.085000
    magnetic_moment: 0.00000000
  - symbol: Si # 2
    coordinates: [  0.250000000000000,  0.250000000000000,  0.250000000000000 ]
    mass: 28.085000
    magnetic_moment: 0.00000000
  reciprocal_lattice: # without 2pi
  - [    -0.191974512242961,     0.191974512242961,     0.191974512242961 ] # a*
  - [     0.191974512242961,    -0.191974512242961,     0.191974512242961 ] # b*
  - [     0.191974512242961,     0.191974512242961,    -0.191974512242961 ] # c*

unit_cell:
  lattice:
  - [     0.000000000000000,     2.604512412393600,     2.604512412393600 ] # a
  - [     2.604512412393600,     0.000000000000000,     2.604512412393600 ] # b
  - [     2.604512412393600,     2.604512412393600,     0.000000000000000 ] # c
  points:
  - symbol: Si # 1
    coordinates: [  0.000000000000000,  0.000000000000000,  0.000000000000000 ]
    mass: 28.085000
    reduced_to: 1
    magnetic_moment: 0.00000000
  - symbol: Si # 2
    coordinates: [  0.250000000000000,  0.250000000000000,  0.250000000000000 ]
    mass: 28.085000
    reduced_to: 2
    magnetic_moment: 0.00000000

supercell:
  lattice:
  - [     5.209024824787200,    -0.000000000000000,    -0.000000000000000 ] # a
  - [    -0.000000000000000,     5.209024824787200,     0.000000000000000 ] # b
  - [     0.000000000000000,     0.000000000000000,     5.209024824787200 ] # c
  points:
  - symbol: Si # 1
    coordinates: [  0.000000000000000,  0.000000000000000,  0.000000000000000 ]
    mass: 28.085000
    reduced_to: 1
    magnetic_moment: 0.00000000
  - symbol: Si # 2
    coordinates: [  0.000000000000000,  0.500000000000000,  0.500000000000000 ]
    mass: 28.085000
    reduced_to: 1
    magnetic_moment: 0.00000000
  - symbol: Si # 3
    coordinates: [  0.500000000000000,  0.000000000000000,  0.500000000000000 ]
    mass: 28.085000
    reduced_to: 1
    magnetic_moment: 0.00000000
  - symbol: Si # 4
    coordinates: [  0.500000000000000,  0.500000000000000,  0.000000000000000 ]
    mass: 28.085000
    reduced_to: 1
    magnetic_moment: 0.00000000
  - symbol: Si # 5
    coordinates: [  0.250000000000000,  0.250000000000000,  0.250000000000000 ]
    mass: 28.085000
    reduced_to: 5
    magnetic_moment: 0.00000000
  - symbol: Si # 6
    coordinates: [  0.250000000000000,  0.750000000000000,  0.750000000000000 ]
    mass: 28.085000
    reduced_to: 5
    magnetic_moment: 0.00000000
  - symbol: Si # 7
    coordinates: [  0.750000000000000,  0.250000000000000,  0.750000000000000 ]
    mass: 28.085000
    reduced_to: 5
    magnetic_moment: 0.00000000
  - symbol: Si # 8
    coordinates: [  0.750000000000000,  0.750000000000000,  0.250000000000000 ]
    mass: 28.085000
    reduced_to: 5
    magnetic_moment: 0.00000000

displacements:
- atom:    1
  displacement:
    [   0.0100000000000000, -0.0000000000000000, -0.0000000000000000 ]
  forces:
  - [  -0.1747874427222840,  0.0000000077171061, -0.0000000061731892 ]
  - [  -0.0182860367781464,  0.0000000066399698, -0.0000000030777442 ]
  - [   0.0109706117925117,  0.0000000086636460, -0.0000000005942935 ]
  - [   0.0109705997248475, -0.0000000035147923, -0.0000000007519560 ]
  - [   0.0429965517005482,  0.0383466480974005,  0.0383466511115786 ]
  - [   0.0429965489518282, -0.0383466746201456, -0.0383466434579103 ]
  - [   0.0425695851570071, -0.0373992466967297,  0.0373992514716956 ]
  - [   0.0425695821736876,  0.0373992537135453, -0.0373992485281811 ]
