phonopy:
  version: "2.38.2"
  frequency_unit_conversion_factor: 15.633304
  symmetry_tolerance: 1.00000e-05

magnetic_space_group:
  uni_number: 1631
  msg_type: 2

supercell_matrix:
- [  -1,   1,   1 ]
- [   1,  -1,   1 ]
- [   1,   1,  -1 ]

primitive_cell:
  lattice:
  - [     0.000000000000000,     2.604512412393600,     2.604512412393600 ] # a
  - [     2.604512412393600,     0.000000000000000,     2.604512412393600 ] # b
  - [     2.604512412393600,     2.604512412393600,     0.000000000000000 ] # c
  points:
  - symbol: Si # 1
    coordinates: [  0.000000000000000,  0.000000000000000,  0.000000000000000 ]
    mass: 28.085000
    magnetic_moment: 0.00000000
  - symbol: Si # 2
    coordinates: [  0.250000000000000,  0.250000000000000,  0.250000000000000 ]
    mass: 28.085000
    magnetic_moment: 0.00000000
  reciprocal_lattice: # without 2pi
  - [    -0.191974512242961,     0.191974512242961,     0.191974512242961 ] # a*
  - [     0.191974512242961,    -0.191974512242961,     0.191974512242961 ] # b*
  - [     0.191974512242961,     0.191974512242961,    -0.191974512242961 ] # c*

unit_cell:
  lattice:
  - [     0.000000000000000,     2.604512412393600,     2.604512412393600 ] # a
  - [     2.604512412393600,     0.000000000000000,     2.604512412393600 ] # b
  - [     2.604512412393600,     2.604512412393600,     0.000000000000000 ] # c
  points:
  - symbol: Si # 1
    coordinates: [  0.000000000000000,  0.000000000000000,  0.000000000000000 ]
    mass: 28.085000
    reduced_to: 1
    magnetic_moment: 0.00000000
  - symbol: Si # 2
    coordinates: [  0.250000000000000,  0.250000000000000,  0.250000000000000 ]
    mass: 28.085000
    reduced_to: 2
    magnetic_moment: 0.00000000

supercell:
  lattice:
  - [     5.209024824787200,    -0.000000000000000,    -0.000000000000000 ] # a
  - [    -0.000000000000000,     5.209024824787200,     0.000000000000000 ] # b
  - [     0.000000000000000,     0.000000000000000,     5.209024824787200 ] # c
  points:
  - symbol: Si # 1
    coordinates: [  0.000000000000000,  0.000000000000000,  0.000000000000000 ]
    mass: 28.085000
    reduced_to: 1
    magnetic_moment: 0.00000000
  - symbol: Si # 2
    coordinates: [  1.000000000000000,  0.500000000000000,  0.500000000000000 ]
    mass: 28.085000
    reduced_to: 1
    magnetic_moment: 0.00000000
  - symbol: Si # 3
    coordinates: [  0.500000000000000,  0.000000000000000,  0.500000000000000 ]
    mass: 28.085000
    reduced_to: 1
    magnetic_moment: 0.00000000
  - symbol: Si # 4
    coordinates: [  0.500000000000000,  0.500000000000000,  0.000000000000000 ]
    mass: 28.085000
    reduced_to: 1
    magnetic_moment: 0.00000000
  - symbol: Si # 5
    coordinates: [  0.250000000000000,  0.250000000000000,  0.250000000000000 ]
    mass: 28.085000
    reduced_to: 5
    magnetic_moment: 0.00000000
  - symbol: Si # 6
    coordinates: [  0.250000000000000,  0.750000000000000,  0.750000000000000 ]
    mass: 28.085000
    reduced_to: 5
    magnetic_moment: 0.00000000
  - symbol: Si # 7
    coordinates: [  0.750000000000000,  0.250000000000000,  0.750000000000000 ]
    mass: 28.085000
    reduced_to: 5
    magnetic_moment: 0.00000000
  - symbol: Si # 8
    coordinates: [  0.750000000000000,  0.750000000000000,  0.250000000000000 ]
    mass: 28.085000
    reduced_to: 5
    magnetic_moment: 0.00000000

displacements:
- atom:    1
  displacement:
    [   0.0100000000000000, -0.0000000000000000, -0.0000000000000000 ]
  forces:
  - [  -0.1753132664191730, -0.0000000025314225,  0.0000000082645466 ]
  - [  -0.0179777685433990, -0.0000000037841866, -0.0000000013614124 ]
  - [   0.0113253534309962,  0.0000000067582227, -0.0000000044372185 ]
  - [   0.0113253523850321, -0.0000000039153603, -0.0000000011137178 ]
  - [   0.0428556376877769,  0.0380813858538217,  0.0380813870850149 ]
  - [   0.0428556223645204, -0.0380813822404417, -0.0380813863621916 ]
  - [   0.0424645396882007, -0.0371713549697286,  0.0371713562888176 ]
  - [   0.0424645294060458,  0.0371713548290953, -0.0371713583638388 ]
