# Thermal properties / unit cell (natom)

unit:
  temperature:   K
  free_energy:   kJ/mol
  entropy:       J/K/mol
  heat_capacity: J/K/mol

natom: 2    
cutoff_frequency: 0.00000
num_modes: 546750
num_integrated_modes: 546747

zero_point_energy:      12.9760307

thermal_properties:
- temperature:         0.0000000
  free_energy:        12.9760307
  entropy:             0.0000000
  heat_capacity:       0.0000000
  energy:             12.9760307

- temperature:        10.0000000
  free_energy:        12.9759367
  entropy:             0.0374623
  heat_capacity:       0.1108891
  energy:             12.9763114

- temperature:        20.0000000
  free_energy:        12.9745144
  entropy:             0.3095646
  heat_capacity:       0.9695784
  energy:             12.9807057

- temperature:        30.0000000
  free_energy:        12.9681037
  entropy:             1.0617678
  heat_capacity:       3.0417315
  energy:             12.9999567

- temperature:        40.0000000
  free_energy:        12.9516896
  entropy:             2.2851376
  heat_capacity:       5.5928626
  energy:             13.0430951

- temperature:        50.0000000
  free_energy:        12.9214553
  entropy:             3.7939097
  heat_capacity:       7.9629847
  energy:             13.1111508

- temperature:        60.0000000
  free_energy:        12.8753970
  entropy:             5.4294477
  heat_capacity:       9.9825081
  energy:             13.2011638

- temperature:        70.0000000
  free_energy:        12.8127523
  entropy:             7.1008009
  heat_capacity:      11.7054425
  energy:             13.3098083

- temperature:        80.0000000
  free_energy:        12.7334067
  entropy:             8.7652800
  heat_capacity:      13.2347187
  energy:             13.4346291

- temperature:        90.0000000
  free_energy:        12.6375237
  entropy:            10.4070698
  heat_capacity:      14.6601684
  energy:             13.5741600

- temperature:       100.0000000
  free_energy:        12.5253506
  entropy:            12.0234368
  heat_capacity:      16.0432307
  energy:             13.7276943

- temperature:       110.0000000
  free_energy:        12.3971311
  entropy:            13.6169848
  heat_capacity:      17.4180593
  energy:             13.8949995

- temperature:       120.0000000
  free_energy:        12.2530737
  entropy:            15.1916664
  heat_capacity:      18.7979037
  energy:             14.0760737

- temperature:       130.0000000
  free_energy:        12.0933490
  entropy:            16.7509578
  heat_capacity:      20.1822863
  energy:             14.2709735

- temperature:       140.0000000
  free_energy:        11.9180979
  entropy:            18.2972141
  heat_capacity:      21.5630997
  energy:             14.4797079

- temperature:       150.0000000
  free_energy:        11.7274441
  entropy:            19.8316122
  heat_capacity:      22.9290453
  energy:             14.7021859

- temperature:       160.0000000
  free_energy:        11.5215045
  entropy:            21.3543489
  heat_capacity:      24.2684887
  energy:             14.9382003

- temperature:       170.0000000
  free_energy:        11.3003977
  entropy:            22.8649114
  heat_capacity:      25.5710673
  energy:             15.1874326

- temperature:       180.0000000
  free_energy:        11.0642500
  entropy:            24.3623371
  heat_capacity:      26.8284289
  energy:             15.4494707

- temperature:       190.0000000
  free_energy:        10.8131987
  entropy:            25.8454264
  heat_capacity:      28.0344210
  energy:             15.7238297

- temperature:       200.0000000
  free_energy:        10.5473935
  entropy:            27.3129028
  heat_capacity:      29.1849696
  energy:             16.0099741

- temperature:       210.0000000
  free_energy:        10.2669968
  entropy:            28.7635225
  heat_capacity:      30.2778068
  energy:             16.3073366

- temperature:       220.0000000
  free_energy:         9.9721831
  entropy:            30.1961455
  heat_capacity:      31.3121462
  energy:             16.6153351

- temperature:       230.0000000
  free_energy:         9.6631373
  entropy:            31.6097756
  heat_capacity:      32.2883621
  energy:             16.9333857

- temperature:       240.0000000
  free_energy:         9.3400537
  entropy:            33.0035792
  heat_capacity:      33.2077000
  energy:             17.2609127

- temperature:       250.0000000
  free_energy:         9.0031340
  entropy:            34.3768890
  heat_capacity:      34.0720313
  energy:             17.5973563

- temperature:       260.0000000
  free_energy:         8.6525859
  entropy:            35.7291987
  heat_capacity:      34.8836532
  energy:             17.9421776

- temperature:       270.0000000
  free_energy:         8.2886212
  entropy:            37.0601515
  heat_capacity:      35.6451293
  energy:             18.2948621

- temperature:       280.0000000
  free_energy:         7.9114548
  entropy:            38.3695257
  heat_capacity:      36.3591678
  energy:             18.6549220

- temperature:       290.0000000
  free_energy:         7.5213030
  entropy:            39.6572193
  heat_capacity:      37.0285295
  energy:             19.0218966

- temperature:       300.0000000
  free_energy:         7.1183827
  entropy:            40.9232338
  heat_capacity:      37.6559597
  energy:             19.3953528

- temperature:       310.0000000
  free_energy:         6.7029103
  entropy:            42.1676602
  heat_capacity:      38.2441409
  energy:             19.7748850

- temperature:       320.0000000
  free_energy:         6.2751009
  entropy:            43.3906642
  heat_capacity:      38.7956591
  energy:             20.1601135

- temperature:       330.0000000
  free_energy:         5.8351677
  entropy:            44.5924743
  heat_capacity:      39.3129828
  energy:             20.5506842

- temperature:       340.0000000
  free_energy:         5.3833211
  entropy:            45.7733700
  heat_capacity:      39.7984503
  energy:             20.9462669

- temperature:       350.0000000
  free_energy:         4.9197689
  entropy:            46.9336727
  heat_capacity:      40.2542630
  energy:             21.3465543

- temperature:       360.0000000
  free_energy:         4.4447151
  entropy:            48.0737364
  heat_capacity:      40.6824838
  energy:             21.7512602

- temperature:       370.0000000
  free_energy:         3.9583604
  entropy:            49.1939408
  heat_capacity:      41.0850392
  energy:             22.1601185

- temperature:       380.0000000
  free_energy:         3.4609012
  entropy:            50.2946849
  heat_capacity:      41.4637228
  energy:             22.5728815

- temperature:       390.0000000
  free_energy:         2.9525302
  entropy:            51.3763814
  heat_capacity:      41.8202010
  energy:             22.9893189

- temperature:       400.0000000
  free_energy:         2.4334357
  entropy:            52.4394525
  heat_capacity:      42.1560195
  energy:             23.4092166

- temperature:       410.0000000
  free_energy:         1.9038018
  entropy:            53.4843255
  heat_capacity:      42.4726102
  energy:             23.8323752

- temperature:       420.0000000
  free_energy:         1.3638084
  entropy:            54.5114305
  heat_capacity:      42.7712983
  energy:             24.2586092

- temperature:       430.0000000
  free_energy:         0.8136310
  entropy:            55.5211969
  heat_capacity:      43.0533097
  energy:             24.6877456

- temperature:       440.0000000
  free_energy:         0.2534408
  entropy:            56.5140517
  heat_capacity:      43.3197778
  energy:             25.1196236

- temperature:       450.0000000
  free_energy:        -0.3165951
  entropy:            57.4904177
  heat_capacity:      43.5717506
  energy:             25.5540929

- temperature:       460.0000000
  free_energy:        -0.8963140
  entropy:            58.4507119
  heat_capacity:      43.8101968
  energy:             25.9910135

- temperature:       470.0000000
  free_energy:        -1.4855571
  entropy:            59.3953444
  heat_capacity:      44.0360119
  energy:             26.4302547

- temperature:       480.0000000
  free_energy:        -2.0841700
  entropy:            60.3247175
  heat_capacity:      44.2500242
  energy:             26.8716944

- temperature:       490.0000000
  free_energy:        -2.6920019
  entropy:            61.2392252
  heat_capacity:      44.4530000
  energy:             27.3152184

- temperature:       500.0000000
  free_energy:        -3.3089062
  entropy:            62.1392524
  heat_capacity:      44.6456483
  energy:             27.7607200

- temperature:       510.0000000
  free_energy:        -3.9347400
  entropy:            63.0251748
  heat_capacity:      44.8286256
  energy:             28.2080992

- temperature:       520.0000000
  free_energy:        -4.5693639
  entropy:            63.8973581
  heat_capacity:      45.0025400
  energy:             28.6572623

- temperature:       530.0000000
  free_energy:        -5.2126425
  entropy:            64.7561588
  heat_capacity:      45.1679551
  energy:             29.1081216

- temperature:       540.0000000
  free_energy:        -5.8644437
  entropy:            65.6019231
  heat_capacity:      45.3253938
  energy:             29.5605948

- temperature:       550.0000000
  free_energy:        -6.5246387
  entropy:            66.4349876
  heat_capacity:      45.4753411
  energy:             30.0146045

- temperature:       560.0000000
  free_energy:        -7.1931022
  entropy:            67.2556792
  heat_capacity:      45.6182475
  energy:             30.4700782

- temperature:       570.0000000
  free_energy:        -7.8697121
  entropy:            68.0643149
  heat_capacity:      45.7545315
  energy:             30.9269474

- temperature:       580.0000000
  free_energy:        -8.5543493
  entropy:            68.8612023
  heat_capacity:      45.8845824
  energy:             31.3851480

- temperature:       590.0000000
  free_energy:        -9.2468979
  entropy:            69.6466397
  heat_capacity:      46.0087622
  energy:             31.8446195

- temperature:       600.0000000
  free_energy:        -9.9472449
  entropy:            70.4209162
  heat_capacity:      46.1274082
  energy:             32.3053048

- temperature:       610.0000000
  free_energy:       -10.6552800
  entropy:            71.1843119
  heat_capacity:      46.2408346
  energy:             32.7671503

- temperature:       620.0000000
  free_energy:       -11.3708958
  entropy:            71.9370982
  heat_capacity:      46.3493343
  energy:             33.2301051

- temperature:       630.0000000
  free_energy:       -12.0939875
  entropy:            72.6795379
  heat_capacity:      46.4531807
  energy:             33.6941214

- temperature:       640.0000000
  free_energy:       -12.8244529
  entropy:            73.4118858
  heat_capacity:      46.5526292
  energy:             34.1591541

- temperature:       650.0000000
  free_energy:       -13.5621924
  entropy:            74.1343885
  heat_capacity:      46.6479181
  energy:             34.6251602

- temperature:       660.0000000
  free_energy:       -14.3071086
  entropy:            74.8472847
  heat_capacity:      46.7392705
  energy:             35.0920993

- temperature:       670.0000000
  free_energy:       -15.0591068
  entropy:            75.5508059
  heat_capacity:      46.8268952
  energy:             35.5599331

- temperature:       680.0000000
  free_energy:       -15.8180943
  entropy:            76.2451760
  heat_capacity:      46.9109875
  energy:             36.0286254

- temperature:       690.0000000
  free_energy:       -16.5839806
  entropy:            76.9306120
  heat_capacity:      46.9917306
  energy:             36.4981417

- temperature:       700.0000000
  free_energy:       -17.3566774
  entropy:            77.6073241
  heat_capacity:      47.0692960
  energy:             36.9684494

- temperature:       710.0000000
  free_energy:       -18.1360986
  entropy:            78.2755158
  heat_capacity:      47.1438450
  energy:             37.4395176

- temperature:       720.0000000
  free_energy:       -18.9221600
  entropy:            78.9353844
  heat_capacity:      47.2155287
  energy:             37.9113168

- temperature:       730.0000000
  free_energy:       -19.7147792
  entropy:            79.5871210
  heat_capacity:      47.2844892
  energy:             38.3838191

- temperature:       740.0000000
  free_energy:       -20.5138759
  entropy:            80.2309106
  heat_capacity:      47.3508602
  energy:             38.8569979

- temperature:       750.0000000
  free_energy:       -21.3193715
  entropy:            80.8669328
  heat_capacity:      47.4147672
  energy:             39.3308281

- temperature:       760.0000000
  free_energy:       -22.1311893
  entropy:            81.4953615
  heat_capacity:      47.4763285
  energy:             39.8052855

- temperature:       770.0000000
  free_energy:       -22.9492540
  entropy:            82.1163652
  heat_capacity:      47.5356556
  energy:             40.2803472

- temperature:       780.0000000
  free_energy:       -23.7734924
  entropy:            82.7301075
  heat_capacity:      47.5928534
  energy:             40.7559915

- temperature:       790.0000000
  free_energy:       -24.6038325
  entropy:            83.3367468
  heat_capacity:      47.6480209
  energy:             41.2321975

- temperature:       800.0000000
  free_energy:       -25.4402041
  entropy:            83.9364370
  heat_capacity:      47.7012516
  energy:             41.7089455

- temperature:       810.0000000
  free_energy:       -26.2825386
  entropy:            84.5293271
  heat_capacity:      47.7526337
  energy:             42.1862164

- temperature:       820.0000000
  free_energy:       -27.1307685
  entropy:            85.1155619
  heat_capacity:      47.8022504
  energy:             42.6639922

- temperature:       830.0000000
  free_energy:       -27.9848281
  entropy:            85.6952818
  heat_capacity:      47.8501806
  energy:             43.1422558

- temperature:       840.0000000
  free_energy:       -28.8446529
  entropy:            86.2686230
  heat_capacity:      47.8964987
  energy:             43.6209905

- temperature:       850.0000000
  free_energy:       -29.7101797
  entropy:            86.8357180
  heat_capacity:      47.9412752
  energy:             44.1001806

- temperature:       860.0000000
  free_energy:       -30.5813468
  entropy:            87.3966952
  heat_capacity:      47.9845768
  energy:             44.5798111

- temperature:       870.0000000
  free_energy:       -31.4580937
  entropy:            87.9516794
  heat_capacity:      48.0264667
  energy:             45.0598674

- temperature:       880.0000000
  free_energy:       -32.3403609
  entropy:            88.5007918
  heat_capacity:      48.0670049
  energy:             45.5403359

- temperature:       890.0000000
  free_energy:       -33.2280903
  entropy:            89.0441500
  heat_capacity:      48.1062480
  energy:             46.0212032

- temperature:       900.0000000
  free_energy:       -34.1212251
  entropy:            89.5818686
  heat_capacity:      48.1442501
  energy:             46.5024567

- temperature:       910.0000000
  free_energy:       -35.0197093
  entropy:            90.1140588
  heat_capacity:      48.1810623
  energy:             46.9840843

- temperature:       920.0000000
  free_energy:       -35.9234882
  entropy:            90.6408286
  heat_capacity:      48.2167331
  energy:             47.4660742

- temperature:       930.0000000
  free_energy:       -36.8325081
  entropy:            91.1622832
  heat_capacity:      48.2513088
  energy:             47.9484153

- temperature:       940.0000000
  free_energy:       -37.7467165
  entropy:            91.6785248
  heat_capacity:      48.2848331
  energy:             48.4310968

- temperature:       950.0000000
  free_energy:       -38.6660616
  entropy:            92.1896528
  heat_capacity:      48.3173478
  energy:             48.9141086

- temperature:       960.0000000
  free_energy:       -39.5904928
  entropy:            92.6957639
  heat_capacity:      48.3488926
  energy:             49.3974406

- temperature:       970.0000000
  free_energy:       -40.5199604
  entropy:            93.1969523
  heat_capacity:      48.3795053
  energy:             49.8810833

- temperature:       980.0000000
  free_energy:       -41.4544157
  entropy:            93.6933096
  heat_capacity:      48.4092218
  energy:             50.3650277

- temperature:       990.0000000
  free_energy:       -42.3938108
  entropy:            94.1849249
  heat_capacity:      48.4380765
  energy:             50.8492649

- temperature:      1000.0000000
  free_energy:       -43.3380987
  entropy:            94.6718852
  heat_capacity:      48.4661021
  energy:             51.3337864
