------------------------------------------------------------
          Invoking FHI-aims ...

          When using FHI-aims, please cite the following reference:

            Volker Blum, Ralf Gehrke, Felix Hanke, Paula Havu,
            Ville Havu, Xinguo Ren, Karsten Reuter, and Matthias Scheffler,
            'Ab Initio Molecular Simulations with Numeric Atom-Centered Orbitals',
            Computer Physics Communications 180, 2175-2196 (2009)

          In addition, many other developments in FHI-aims are likely important for
          your particular application. If so, please cite them. A partial list of references
          is written at the end of this file. Thank you for giving credit to the authors
          of these developments.

          For general information about FHI-aims please find us at

            https://fhi-aims.org

          Online tutorials can be found at

            https://fhi-aims-club.gitlab.io/tutorials/tutorials-overview/

          For any questions about FHI-aims, please visit our slack channel at

            https://fhi-aims.slack.com

          and our main development and support site at

            https://aims-git.rz-berlin.mpg.de .

          The latter site, in particular, has a wiki to collect information, as well
          as an issue tracker to log discussions, suggest improvements, and report issues
          or bugs. https://aims-git.rz-berlin.mpg.de is also the main development site
          of the project and all new and updated code versions can be obtained there.
          Please send an email to aims-coordinators@fhi-berlin.mpg.de and we will add
          you to these sites. They are for you and everyone is welcome there.

------------------------------------------------------------



  Date     :  20250610, Time     :  152159.250
  Time zero on CPU 1             :   0.923920000000000E-01  s.
  Internal wall clock time zero  :           518800919.250  s.

  FHI-aims created a unique identifier for this run for later identification
  aims_uuid : ACAFF746-5965-4686-AC96-6B575C631053

  Build configuration of the current instance of FHI-aims
  -------------------------------------------------------
  FHI-aims version      : 240206
  Commit number         : 583c55b2e
  CMake host system     : Darwin-23.4.0
  CMake version         : 3.29.1
  Fortran compiler      : /opt/homebrew/bin/mpif90 (GNU) version 13.2.0
  Fortran compiler flags: -O3 -fallow-argument-mismatch -ffree-line-length-none -framework accelerate
  C compiler            : /opt/homebrew/bin/mpicc (AppleClang) version 15.0.0.15000309
  C compiler flags      : -O3 -framework accelerate
  C++ compiler          : /opt/homebrew/bin/mpic++ (AppleClang) version 15.0.0.15000309
  C++ compiler flags    : -O3 -framework accelerate
  HIP compiler          :
  HIP compiler flags    :
  HIP GPU arch          :
  Using MPI
  Using ScaLAPACK
  Using LibXC
  Using i-PI
  Using RLSY
  Linking against: /Users/carbogno/Codes/2023_Scalapack/libscalapack.a

  Using        8 parallel tasks.
  Task        0 on host ThMac05.local reporting.
  Task        1 on host ThMac05.local reporting.
  Task        2 on host ThMac05.local reporting.
  Task        3 on host ThMac05.local reporting.
  Task        4 on host ThMac05.local reporting.
  Task        5 on host ThMac05.local reporting.
  Task        6 on host ThMac05.local reporting.
  Task        7 on host ThMac05.local reporting.

  Memory overcommitment: We could not find /proc/sys/vm/overcommit_memory on your system.

  Obtaining array dimensions for all initial allocations:
  
  -----------------------------------------------------------------------
  Parsing control.in (first pass over file, find array dimensions only).
  The contents of control.in will be repeated verbatim below
  unless switched off by setting 'verbatim_writeout .false.' .
  in the first line of control.in .
  -----------------------------------------------------------------------
  
  #===============================================================================
  # FHI-aims file: ./control.in
  # Created using the Atomic Simulation Environment (ASE)
  # Tue Jun 10 15:21:59 2025
  #===============================================================================
  xc                                 pw-lda
  k_grid                             4 4 4
  sc_accuracy_rho                    1e-06
  relativistic                       atomic_zora scalar
  output_level                       MD_light
  use_pimd_wrapper                   localhost 10003
  #===============================================================================
  
  ################################################################################
  #
  #  FHI-aims code project
  #  VB, Fritz-Haber Institut, 2009
  #
  #  Suggested "light" defaults for Si atom (to be pasted into control.in file)
  #  Be sure to double-check any results obtained with these settings for post-processing,
  #  e.g., with the "tight" defaults and larger basis sets.
  #
  #  2020/09/08 Added f function to "light" after reinspection of Delta test outcomes.
  #             This was done for all of Al-Cl and is a tricky decision since it makes
  #             "light" calculations measurably more expensive for these elements.
  #             Nevertheless, outcomes for P, S, Cl (and to some extent, Si) appear
  #             to justify this choice.
  #
  ################################################################################
    species        Si
  #     global species definitions
      nucleus             14
      mass                28.0855
  #
      l_hartree           4
  #
      cut_pot             3.5          1.5  1.0
      basis_dep_cutoff    1e-4
  #
      radial_base         42 5.0
      radial_multiplier   1
      angular_grids       specified
        division   0.5866   50
        division   0.9616  110
        division   1.2249  194
        division   1.3795  302
  #      division   1.4810  434
  #      division   1.5529  590
  #      division   1.6284  770
  #      division   1.7077  974
  #      division   2.4068 1202
  #      outer_grid   974
        outer_grid 302
  ################################################################################
  #
  #  Definition of "minimal" basis
  #
  ################################################################################
  #     valence basis states
      valence      3  s   2.
      valence      3  p   2.
  #     ion occupancy
      ion_occ      3  s   1.
      ion_occ      3  p   1.
  ################################################################################
  #
  #  Suggested additional basis functions. For production calculations,
  #  uncomment them one after another (the most important basis functions are
  #  listed first).
  #
  #  Constructed for dimers: 1.75 A, 2.0 A, 2.25 A, 2.75 A, 3.75 A
  #
  ################################################################################
  #  "First tier" - improvements: -571.96 meV to -37.03 meV
       hydro 3 d 4.2
       hydro 2 p 1.4
       hydro 4 f 6.2
       ionic 3 s auto
  #  "Second tier" - improvements: -16.76 meV to -3.03 meV
  #     hydro 3 d 9
  #     hydro 5 g 9.4
  #     hydro 4 p 4
  #     hydro 1 s 0.65
  #  "Third tier" - improvements: -3.89 meV to -0.60 meV
  #     ionic 3 d auto
  #     hydro 3 s 2.6
  #     hydro 4 f 8.4
  #     hydro 3 d 3.4
  #     hydro 3 p 7.8
  #  "Fourth tier" - improvements: -0.33 meV to -0.11 meV
  #     hydro 2 p 1.6
  #     hydro 5 g 10.8
  #     hydro 5 f 11.2
  #     hydro 3 d 1
  #     hydro 4 s 4.5
  #  Further basis functions that fell out of the optimization - noise
  #  level... < -0.08 meV
  #     hydro 4 d 6.6
  #     hydro 5 g 16.4
  #     hydro 4 d 9
  
  -----------------------------------------------------------------------
  Completed first pass over input file control.in .
  -----------------------------------------------------------------------
  
  
  -----------------------------------------------------------------------
  Parsing geometry.in (first pass over file, find array dimensions only).
  The contents of geometry.in will be repeated verbatim below
  unless switched off by setting 'verbatim_writeout .false.' .
  in the first line of geometry.in .
  -----------------------------------------------------------------------
  
  #=======================================================
  # FHI-aims file: ./geometry.in
  # Created using the Atomic Simulation Environment (ASE)
  # Tue Jun 10 15:21:59 2025
  #=======================================================
  lattice_vector 5.4088325884509993 0.0000000000639995 0.0000000001369997
  lattice_vector 0.0000000000629998 5.4088325742939993 0.0000000001030003
  lattice_vector 0.0000000001370002 0.0000000001020002 5.4088325742309999
  atom_frac 0.0264277255542823 -0.0143930945865410 -0.0044406013284338 Si
  atom_frac -0.0275940342023105 0.5449997351974419 0.4960129232105341 Si
  atom_frac 0.5168100515555982 0.0454587175792785 0.5013337871418903 Si
  atom_frac 0.4938121980448900 0.4313065600076158 0.0118599405233705 Si
  atom_frac 0.2133282462981544 0.2351242374998459 0.2841703081800271 Si
  atom_frac 0.2989375941846385 0.7435194719662157 0.7594782436930416 Si
  atom_frac 0.7660514953283667 0.2490275276892746 0.7375933566128274 Si
  atom_frac 0.7122267232605939 0.7649568446262455 0.2139920419640706 Si
  
  -----------------------------------------------------------------------
  Completed first pass over input file geometry.in .
  -----------------------------------------------------------------------
  

  Basic array size parameters:
  | Number of species                 :        1
  | Number of atoms                   :        8
  | Number of lattice vectors         :        3
  | Max. basis fn. angular momentum   :        3
  | Max. atomic/ionic basis occupied n:        3
  | Max. number of basis fn. types    :        3
  | Max. radial fns per species/type  :        5
  | Max. logarithmic grid size        :     1346
  | Max. radial integration grid size :       42
  | Max. angular integration grid size:      302
  | Max. angular grid division number :        8
  | Radial grid for Hartree potential :     1346
  | Number of spin channels           :        1

------------------------------------------------------------
          Reading file control.in.
------------------------------------------------------------
  XC: Using Perdew-Wang parametrisation of Ceperley-Alder LDA.
  Found k-point grid:         4         4         4
  Convergence accuracy of self-consistent charge density:  0.1000E-05
  Scalar relativistic treatment of kinetic energy: on-site free-atom approximation to ZORA.
  Requested output level: MD_light
  Using external wrapper (i-PI) for performing (path integral) molecular dynamics
  **Attention: initial geometry.in file will be ignored!

  Reading configuration options for species Si                  .
  | Found nuclear charge :  14.0000
  | Found atomic mass :    28.085500000000000      amu
  | Found l_max for Hartree potential  :   4
  | Found cutoff potl. onset [A], width [A], scale factor :    3.50000    1.50000    1.00000
  | Threshold for basis-dependent cutoff potential is   0.100000E-03
  | Found data for basic radial integration grid :    42 points, outermost radius =    5.000 A
  | Found multiplier for basic radial grid :   1
  | Found angular grid specification: user-specified.
  | Specified grid contains     5 separate shells.
  | Check grid settings after all constraints further below.
  | Found free-atom valence shell :  3 s   2.000
  | Found free-atom valence shell :  3 p   2.000
  | Found free-ion valence shell :  3 s   1.000
  | Found free-ion valence shell :  3 p   1.000
  | Found hydrogenic basis function :  3 d   4.200
  | Found hydrogenic basis function :  2 p   1.400
  | Found hydrogenic basis function :  4 f   6.200
  | Found ionic basis function :  3 s , default cutoff radius.
  Species Si                  : Missing cutoff potential type.
  Defaulting to exp(1/x)/(1-x)^2 type cutoff potential.
  Species Si: No 'logarithmic' tag. Using default grid for free atom:
  | Default logarithmic grid data [bohr] : 0.1000E-03 0.1000E+03 0.1012E+01
  | Will include ionic basis functions of  2.0-fold positive Si                   ion.
  Species Si: On-site basis accuracy parameter (for Gram-Schmidt orthonormalisation) not specified.
  Using default value basis_acc =  0.1000000E-03.
  Species Si                  : Using default innermost maximum threshold i_radial=  2 for radial functions.
  Species Si                  : Default cutoff onset for free atom density etc. : 0.35000000E+01 AA.
  Species Si                  : Basic radial grid will be enhanced according to radial_multiplier =   1, to contain    42 grid points.

  Finished reading input file 'control.in'.

------------------------------------------------------------


------------------------------------------------------------
          Reading geometry description geometry.in.
------------------------------------------------------------
  | The smallest distance between any two atoms is         2.15933808 AA.
  | The first atom of this pair is atom number                      3 .
  | The second atom of this pair is atom number                     7 .
  | Wigner-Seitz cell of the first atom image           0     0     0 .
  | (The Wigner-Seitz cell of the second atom is 0 0 0  by definition.)

  Symmetry information by spglib:
  | Precision set to  0.1E-04
  | Number of Operations  : 1
  | Space group           : 1
  | International         : P1
  | Schoenflies           : C1^1
  Input structure read successfully.
  The structure contains        8 atoms,  and a total of        112.000 electrons.

  Input geometry:
  | Unit cell:
  |        5.40883259        0.00000000        0.00000000
  |        0.00000000        5.40883257        0.00000000
  |        0.00000000        0.00000000        5.40883257
  | Atomic structure:
  |       Atom                x [A]            y [A]            z [A]
  |    1: Species Si            0.14294314       -0.07784984       -0.02401847
  |    2: Species Si           -0.14925151        2.94781232        2.68285086
  |    3: Species Si            2.79533905        0.24587859        2.71163052
  |    4: Species Si            2.67094751        2.33286497        0.06414843
  |    5: Species Si            1.15385677        1.27174763        1.53702962
  |    6: Species Si            1.61690340        4.02157234        4.10789066
  |    7: Species Si            4.14344429        1.34694820        3.98951897
  |    8: Species Si            3.85231511        4.13752350        1.15744713

  Lattice parameters for 3D lattice (in Angstroms) :     5.408833    5.408833    5.408833
  Angle(s) between unit vectors (in degrees)       :    90.000000   90.000000   90.000000


  Quantities derived from the lattice vectors (in Angstrom^-1):
  | Reciprocal lattice vector 1:  1.161653 -0.000000 -0.000000
  | Reciprocal lattice vector 2: -0.000000  1.161653 -0.000000
  | Reciprocal lattice vector 3: -0.000000 -0.000000  1.161653
  | Unit cell volume                               :   0.158238E+03  Angstrom^3

  Slab Identifier: This seems to be a bulk system.

  Finished reading input file 'geometry.in'.



  Consistency checks for stacksize environment parameter are next.

  | Maximum stacksize for task 0: 63 [Mb]
  | Maximum stacksize for task 1: 63 [Mb]
  | Maximum stacksize for task 2: 63 [Mb]
  | Maximum stacksize for task 3: 63 [Mb]
  | Maximum stacksize for task 4: 63 [Mb]
  | Maximum stacksize for task 5: 63 [Mb]
  | Maximum stacksize for task 6: 63 [Mb]
  | Maximum stacksize for task 7: 63 [Mb]
   *** Stacksize is not set to unlimited. This might cause problems...
  | Current stacksize for task 0: 63 [Mb]
  | Current stacksize for task 1: 63 [Mb]
  | Current stacksize for task 2: 63 [Mb]
  | Current stacksize for task 3: 63 [Mb]
  | Current stacksize for task 4: 63 [Mb]
  | Current stacksize for task 5: 63 [Mb]
  | Current stacksize for task 6: 63 [Mb]
  | Current stacksize for task 7: 63 [Mb]

  Consistency checks for the contents of control.in are next.

  MPI_IN_PLACE appears to work with this MPI implementation.
  | Keeping use_mpi_in_place .true. (see manual).
  Target number of points in a grid batch is not set. Defaulting to  100
  Method for grid partitioning is not set. Defaulting to parallel hash+maxmin partitioning.
  Batch size limit is not set. Defaulting to    200
  By default, will store active basis functions for each batch.
  If in need of memory, prune_basis_once .false. can be used to disable this option.
  communication_type for Hartree potential was not specified.
  Defaulting to calc_hartree .
  Defaulting to Pulay charge density mixer.
  Pulay mixer: Number of relevant iterations not set.
  Defaulting to    8 iterations.
  Pulay mixer: Number of initial linear mixing iterations not set.
  Defaulting to    0 iterations.
  Work space size for distributed Hartree potential not set.
  Defaulting to   0.200000E+03 MB.
  Mixing parameter for charge density mixing has not been set.
  Using default: charge_mix_param =     0.0500.
  The mixing parameter will be adjusted in iteration number     2 of the first full s.c.f. cycle only.
  Algorithm-dependent basis array size parameters:
  | n_max_pulay                         :        8
  Maximum number of self-consistency iterations not provided.
  Presetting  1000 iterations.
  Presetting      1001 iterations before the initial mixing cycle
  is restarted anyway using the sc_init_iter criterion / keyword.
  Presetting a factor      1.000 between actual scf density residual
  and density convergence criterion sc_accuracy_rho below which sc_init_iter
  takes no effect.
  Calculation of forces was not defined in control.in. No forces will be calculated.
  Geometry relaxation not requested: no relaxation will be performed.
  Force calculation: scf convergence accuracy of forces not set.
  Defaulting to 'sc_accuracy_forces not_checked'.
  Handling of forces: Unphysical translation and rotation will be removed from forces.
  No accuracy limit for integral partition fn. given. Defaulting to  0.1000E-14.
  No threshold value for u(r) in integrations given. Defaulting to  0.1000E-05.
  No occupation type (smearing scheme) given. Defaulting to Gaussian broadening, width =  0.1000E-01 eV.
  The width will be adjusted in iteration number     2 of the first full s.c.f. cycle only.
  S.C.F. convergence parameters will be adjusted in iteration number     2 of the first full s.c.f. cycle only.
  No accuracy for occupation numbers given. Defaulting to  0.1000E-12.
  No threshold value for occupation numbers given. Defaulting to  0.0000E+00.
  No accuracy for fermi level given. Defaulting to  0.1000E-19.
  Maximum # of iterations to find E_F not set. Defaulting to  200.
  Preferred method for the eigenvalue solver ('KS_method') not specified in 'control.in'.
  Defaulting to serial version, LAPACK (via ELSI), since more k-points than CPUs available.
  Will not use alltoall communication since running on < 1024 CPUs.
  Threshold for basis singularities not set.
  Default threshold for basis singularities:  0.1000E-04
  partition_type (choice of integration weights) for integrals was not specified.
  | Using a version of the partition function of Stratmann and coworkers ('stratmann_sparse').
  | At each grid point, the set of atoms used to build the partition table is smoothly restricted to
  | only those atoms whose free-atom density would be non-zero at that grid point.
  Partitioning for Hartree potential was not defined. Using partition_type for integrals.
  | Adjusted default value of keyword multip_moments_threshold to:       0.10000000E-11
  | This value may affect high angular momentum components of the Hartree potential in periodic systems.
  Spin handling was not defined in control.in. Defaulting to unpolarized case.
  No q(lm)/r^(l+1) cutoff set for long-range Hartree potential.
  | Using default value of  0.100000E-09 .
  | Verify using the multipole_threshold keyword.
  Defaulting to new monopole extrapolation.
  Density update method: automatic selection selected.
  Using density matrix based charge density update.
  Using density matrix based charge density update.
  Using packed matrix style: index .
  Defaulting to use time-reversal symmetry for k-point grid.
  Charge integration errors on the 3D integration grid will be compensated
  by explicit normalization and distribution of residual charges.
  Use the "compensate_multipole_errors" flag to change this behaviour.
  Set 'collect_eigenvectors' to be '.true.' for all serial calculations. This is mandatory.
  Set 'collect_eigenvectors' to be '.true.' for KS_method lapack_fast and serial.

  Consistency checks for the contents of geometry.in are next.


  Range separation radius for Ewald summation (hartree_convergence_parameter):      3.87147161 bohr.
  Number of empty states per atom not set in control.in - providing a guess from actual geometry.
  | Total number of empty states used during s.c.f. cycle:       24
  If you use a very high smearing, use empty_states (per atom!) in control.in to increase this value.

  Structure-dependent array size parameters: 
  | Maximum number of distinct radial functions  :        9
  | Maximum number of basis functions            :      200
  | Number of Kohn-Sham states (occupied + empty):       80
------------------------------------------------------------

************************** W A R N I N G *******************************
* You are using the PIMD wrapper. Specifications and positions         *
* in geometry.in will be IGNORED - all is received from the wrapper.   *
* Please make sure species are declared in the same order in           *
* geometry.in and wrapper input.                                       *
************************************************************************


  Performing system and environment tests:
  | Environment variable OMP_NUM_THREADS correctly set to 1.
  | Checking for ScaLAPACK...
  | Testing pdtran()...
  | All pdtran() tests passed.

------------------------------------------------------------
          Preparing all fixed parts of the calculation.
------------------------------------------------------------
  Determining machine precision:
     2.2250738585072014E-308
  Setting up grids for atomic and cluster calculations.

  Creating wave function, potential, and density for free atoms.
  Runtime choices for atomic solver:
  | atomic solver xc        : PW-LDA
  | compute density gradient: 0
  | compute kinetic density : F

  Species: Si

  List of occupied orbitals and eigenvalues:
    n    l              occ      energy [Ha]    energy [eV]
    1    0           2.0000       -65.491668     -1782.1190
    2    0           2.0000        -5.087967      -138.4506
    3    0           2.0000        -0.391471       -10.6525
    2    1           6.0000        -3.502246       -95.3010
    3    1           2.0000        -0.143943        -3.9169


  Adding cutoff potential to free-atom effective potential.
  Creating fixed part of basis set: Ionic, confined, hydrogenic.

  Si                   ion:

  List of free ionic orbitals and eigenvalues:
    n    l      energy [Ha]    energy [eV]
    1    0       -66.364436     -1805.8682
    2    0        -5.935799      -161.5213
    3    0        -1.078166       -29.3384
    2    1        -4.351123      -118.4001
    3    1        -0.781733       -21.2720


  List of ionic basis orbitals and eigenvalues:
    n    l      energy [Ha]    energy [eV]    outer radius [A]
    3    0        -1.078146       -29.3378       4.214062


  Si                   hydrogenic:

  List of hydrogenic basis orbitals: 
    n    l      effective z      eigenvalue [eV]  inner max. [A]     outer max. [A]     outer radius [A]   
    3    2         4.200000       -26.6624           1.139231           1.139231           4.534782
    2    1         1.400000        -6.4613           1.472672           1.472672           4.590560
    4    3         6.200000       -32.6778           1.368518           1.368518           4.534782

  Creating atomic-like basis functions for current effective potential.

  Species Si                  :

  List of atomic basis orbitals and eigenvalues:
    n    l      energy [Ha]    energy [eV]    outer radius [A]
    1    0       -65.491668     -1782.1190       0.789468
    2    0        -5.087967      -138.4506       2.815114
    3    0        -0.391471       -10.6525       4.534782
    2    1        -3.502246       -95.3010       3.259919
    3    1        -0.143943        -3.9169       4.590560

  Assembling full basis from fixed parts.
  | Species Si :   atomic orbital   1 s accepted.
  | Species Si :   atomic orbital   2 s accepted.
  | Species Si :    ionic orbital   3 s accepted.
  | Species Si :   atomic orbital   3 s accepted.
  | Species Si :   atomic orbital   2 p accepted.
  | Species Si :   atomic orbital   3 p accepted.
  | Species Si :    hydro orbital   2 p accepted.
  | Species Si :    hydro orbital   3 d accepted.
  | Species Si :    hydro orbital   4 f accepted.

  Basis size parameters after reduction:
  | Total number of radial functions:        9
  | Total number of basis functions :      200

  Per-task memory consumption for arrays in subroutine allocate_ext:
  |           3.106072MB.
  Testing on-site integration grid accuracy.
  |  Species  Function  <phi|h_atom|phi> (log., in eV)  <phi|h_atom|phi> (rad., in eV)
           1        1              -1782.1189727076              -1782.1182429251
           1        2               -138.4506350693               -138.4506310079
           1        3                -10.3030408815                -10.3029120678
           1        4                  5.0238999146                  4.9457540310 ***
           1        5                -95.3009689499                -95.3009689315
           1        6                 -3.9266496564                 -3.9420918374
           1        7                  6.3453628447                  6.1632372158 ***
           1        8                  6.2883050744                  6.2861881409
           1        9                 19.3222464920                 19.3177041052
 * Note: Onsite integrals marked "***" above are less accurate than
 * onsite_accuracy_threshold =    0.03000 eV. Usually, this is harmless.
 * When in doubt, tighten the "radial" and/or "radial_multiplier" flags to check.

  Preparing densities etc. for the partition functions (integrals / Hartree potential).

  Preparations completed.
  max(cpu_time)          :      0.088 s.
  Wall clock time (cpu1) :      0.090 s.
------------------------------------------------------------

  Initializing index lists of integration centers etc. from given atomic structure:
  Mapping all atomic coordinates to central unit cell.

  Initializing the k-points
  Using symmetry for reducing the k-points
  | k-points reduced from:       64 to       36
  | Number of k-points                             :        36
  The eigenvectors in the calculations are COMPLEX.
  | K-points in task   0:         4
  | K-points in task   1:         5
  | K-points in task   2:         5
  | K-points in task   3:         5
  | K-points in task   4:         5
  | K-points in task   5:         4
  | K-points in task   6:         4
  | K-points in task   7:         4
  | Number of basis functions in the Hamiltonian integrals :      3162
  | Number of basis functions in a single unit cell        :       200
  | Number of centers in hartree potential         :      1034
  | Number of centers in hartree multipole         :       504
  | Number of centers in electron density summation:       338
  | Number of centers in basis integrals           :       360
  | Number of centers in integrals                 :       145
  | Number of centers in hamiltonian               :       338
  | Consuming         42 KiB for k_phase.
  | Number of super-cells (origin) [n_cells]                     :         729
  | Number of super-cells (after PM_index) [n_cells]             :          76
  | Number of super-cells in hamiltonian [n_cells_in_hamiltonian]:          76
  | Size of matrix packed + index [n_hamiltonian_matrix_size] :      355780
* Skipping the SCF initialization for now - done inside wrapper      *
  @ DRIVER MODE: Connecting to host:port localhost       10003
  @ DRIVER MODE: Message from server: STATUS      
  @ DRIVER MODE: Message from server: POSDATA     
  @ DRIVER MODE: Received positions 

  Initializing index lists of integration centers etc. from given atomic structure:
  Mapping all atomic coordinates to central unit cell.

  Initializing the k-points
  Using symmetry for reducing the k-points
  | k-points reduced from:       64 to       36
  | Number of k-points                             :        36
  The eigenvectors in the calculations are COMPLEX.
  | K-points in task   0:         4
  | K-points in task   1:         5
  | K-points in task   2:         5
  | K-points in task   3:         5
  | K-points in task   4:         5
  | K-points in task   5:         4
  | K-points in task   6:         4
  | K-points in task   7:         4
  | Number of basis functions in the Hamiltonian integrals :      3162
  | Number of basis functions in a single unit cell        :       200
  | Number of centers in hartree potential         :      1034
  | Number of centers in hartree multipole         :       504
  | Number of centers in electron density summation:       338
  | Number of centers in basis integrals           :       360
  | Number of centers in integrals                 :       145
  | Number of centers in hamiltonian               :       338
  | Consuming         42 KiB for k_phase.
  | Number of super-cells (origin) [n_cells]                     :         729
  | Number of super-cells (after PM_index) [n_cells]             :          76
  | Number of super-cells in hamiltonian [n_cells_in_hamiltonian]:          76
  | Size of matrix packed + index [n_hamiltonian_matrix_size] :      355780

------------------------------------------------------------
          Begin self-consistency loop: Initialization.

          Date     :  20250610, Time     :  152159.436
------------------------------------------------------------
  | Estimated reciprocal-space cutoff momentum G_max:         2.41181531 bohr^-1 .
  | Reciprocal lattice points for long-range Hartree potential:     250
  Partitioning the integration grid into batches with parallel hashing+maxmin method.
  | Number of batches:      577
  | Maximal batch size:     111
  | Minimal batch size:      49
  | Average batch size:      77.698
  | Standard deviation of batch sizes:      20.347

  Integration load balanced across     8 MPI tasks.
  Work distribution over tasks is as follows:
  Task     0 has       5614 integration points.
  Task     1 has       5623 integration points.
  Task     2 has       5578 integration points.
  Task     3 has       5614 integration points.
  Task     4 has       5627 integration points.
  Task     5 has       5593 integration points.
  Task     6 has       5611 integration points.
  Task     7 has       5572 integration points.
  Initializing partition tables, free-atom densities, potentials, etc. across the integration grid (initialize_grid_storage).
  | initialize_grid_storage: Actual outermost partition radius vs. multipole_radius_free
  | (-- VB: in principle, multipole_radius_free should be larger, hence this output)
  | Species        1: Confinement radius =              4.999999999999999 AA, multipole_radius_free =              5.000694715736543 AA.
  | Species        1: outer_partition_radius set to              5.000694715736543 AA .
  | The sparse table of interatomic distances needs        486.15 kbyte instead of      1036.80 kbyte of memory.
  | Net number of integration points:    44832
  | of which are non-zero points    :    38970
  | Numerical average free-atom electrostatic potential    :    -13.29976261 eV
  Renormalizing the initial density to the exact electron count on the 3D integration grid.
  | Initial density: Formal number of electrons (from input files) :     112.0000000000
  | Integrated number of electrons on 3D grid     :     111.9995984495
  | Charge integration error                      :      -0.0004015505
  | Normalization factor for density and gradient :       1.0000035853
  Renormalizing the free-atom superposition density to the exact electron count on the 3D integration grid.
  | Formal number of electrons (from input files) :     112.0000000000
  | Integrated number of electrons on 3D grid     :     111.9995984495
  | Charge integration error                      :      -0.0004015505
  | Normalization factor for density and gradient :       1.0000035853
  Obtaining max. number of non-zero basis functions in each batch (get_n_compute_maxes).
  | Maximal number of non-zero basis functions:      741 in task     0
  | Maximal number of non-zero basis functions:      710 in task     1
  | Maximal number of non-zero basis functions:      693 in task     2
  | Maximal number of non-zero basis functions:      742 in task     3
  | Maximal number of non-zero basis functions:      706 in task     4
  | Maximal number of non-zero basis functions:      730 in task     5
  | Maximal number of non-zero basis functions:      703 in task     6
  | Maximal number of non-zero basis functions:      715 in task     7
  Allocating        0.977 MB for KS_eigenvector_complex
  Integrating Hamiltonian matrix: batch-based integration.
  Time summed over all CPUs for integration: real work        1.243 s, elapsed        1.498 s
  Integrating overlap matrix.
  Time summed over all CPUs for integration: real work        0.918 s, elapsed        1.035 s
  Decreasing sparse matrix size:
  | Tolerance:  0.1000E-12
  Hamiltonian matrix
  | Array has   323772 nonzero elements out of   355780 elements
  | Sparsity factor is 0.090
  Overlap matrix
  | Array has   311599 nonzero elements out of   355780 elements
  | Sparsity factor is 0.124
  New size of hamiltonian matrix:      323775

  Updating Kohn-Sham eigenvalues and eigenvectors using ELSI and the (modified) LAPACK eigensolver.

  Obtaining occupation numbers and electronic chemical potential using ELSI.
  | Note that, for insulating systems, the printed 'chemical potential' value is not uniquely defined.
  | It can be anywhere in the energy gap, as long as it correctly separates occupied and unoccupied states.
  | In systems with a gap, the physically relevant chemical potential is the VBM or HOMO.

  | Chemical potential (Fermi level):    -6.10315655 eV
  Writing Kohn-Sham eigenvalues.
  K-point:       1 at    0.000000    0.000000    0.000000 (in units of recip. lattice)

  State    Occupation    Eigenvalue [Ha]    Eigenvalue [eV]
      1       2.00000         -65.518127        -1782.83895
      2       2.00000         -65.517995        -1782.83535
      3       2.00000         -65.515388        -1782.76441
      4       2.00000         -65.512680        -1782.69072
      5       2.00000         -65.512093        -1782.67476
      6       2.00000         -65.510081        -1782.61999
      7       2.00000         -65.509574        -1782.60620
      8       2.00000         -65.508723        -1782.58305
      9       2.00000          -5.119984         -139.32186
     10       2.00000          -5.119695         -139.31399
     11       2.00000          -5.116711         -139.23278
     12       2.00000          -5.113533         -139.14631
     13       2.00000          -5.112877         -139.12846
     14       2.00000          -5.110494         -139.06363
     15       2.00000          -5.109867         -139.04657
     16       2.00000          -5.108883         -139.01978
     17       2.00000          -3.535973          -96.21872
     18       2.00000          -3.534383          -96.17546
     19       2.00000          -3.533869          -96.16147
     20       2.00000          -3.533471          -96.15064
     21       2.00000          -3.533238          -96.14429
     22       2.00000          -3.532672          -96.12890
     23       2.00000          -3.531351          -96.09294
     24       2.00000          -3.530938          -96.08172
     25       2.00000          -3.530146          -96.06015
     26       2.00000          -3.528133          -96.00538
     27       2.00000          -3.527752          -95.99501
     28       2.00000          -3.527741          -95.99472
     29       2.00000          -3.527066          -95.97635
     30       2.00000          -3.527033          -95.97544
     31       2.00000          -3.526205          -95.95293
     32       2.00000          -3.524924          -95.91805
     33       2.00000          -3.524664          -95.91098
     34       2.00000          -3.524579          -95.90867
     35       2.00000          -3.524212          -95.89869
     36       2.00000          -3.523891          -95.88995
     37       2.00000          -3.523584          -95.88160
     38       2.00000          -3.523429          -95.87739
     39       2.00000          -3.523077          -95.86779
     40       2.00000          -3.522529          -95.85288
     41       2.00000          -0.671735          -18.27883
     42       2.00000          -0.539043          -14.66810
     43       2.00000          -0.526481          -14.32629
     44       2.00000          -0.515455          -14.02623
     45       2.00000          -0.511188          -13.91014
     46       2.00000          -0.508428          -13.83504
     47       2.00000          -0.500673          -13.62400
     48       2.00000          -0.339923           -9.24979
     49       2.00000          -0.334543           -9.10339
     50       2.00000          -0.332402           -9.04513
     51       2.00000          -0.329952           -8.97846
     52       2.00000          -0.328076           -8.92739
     53       2.00000          -0.319453           -8.69275
     54       2.00000          -0.245853           -6.69001
     55       2.00000          -0.237759           -6.46976
     56       2.00000          -0.230391           -6.26926
     57       0.00000          -0.214642           -5.84071
     58       0.00000          -0.205768           -5.59922
     59       0.00000          -0.194755           -5.29954
     60       0.00000          -0.194028           -5.27977
     61       0.00000          -0.180878           -4.92194
     62       0.00000          -0.178920           -4.86865
     63       0.00000          -0.127229           -3.46208
     64       0.00000          -0.124326           -3.38308
     65       0.00000          -0.123825           -3.36944
     66       0.00000          -0.121511           -3.30648
     67       0.00000           0.026501            0.72112
     68       0.00000           0.059235            1.61186
     69       0.00000           0.069321            1.88631
     70       0.00000           0.119711            3.25750
     71       0.00000           0.127167            3.46039
     72       0.00000           0.143806            3.91316
     73       0.00000           0.148963            4.05350
     74       0.00000           0.154807            4.21251
     75       0.00000           0.165340            4.49913
     76       0.00000           0.172860            4.70376
     77       0.00000           0.181265            4.93248
     78       0.00000           0.189328            5.15188
     79       0.00000           0.196908            5.35814
     80       0.00000           0.200897            5.46669

  What follows are estimated values for band gap, HOMO, LUMO, etc.
  | They are estimated on a discrete k-point grid and not necessarily exact.
  | For converged numbers, create a DOS and/or band structure plot on a denser k-grid.

  Highest occupied state (VBM) at     -6.26926278 eV (relative to internal zero)
  | Occupation number:      2.00000000
  | K-point:       1 at    0.000000    0.000000    0.000000 (in units of recip. lattice)

  Lowest unoccupied state (CBM) at    -5.84071064 eV (relative to internal zero)
  | Occupation number:      0.00000000
  | K-point:       1 at    0.000000    0.000000    0.000000 (in units of recip. lattice)

  ESTIMATED overall HOMO-LUMO gap:      0.42855214 eV between HOMO at k-point 1 and LUMO at k-point 1
  | This appears to be a direct band gap.
  The gap value is above 0.2 eV. Unless you are using a very sparse k-point grid,
  this system is most likely an insulator or a semiconductor.
  Calculating total energy contributions from superposition of free atom densities.

  Total energy components:
  | Sum of eigenvalues            :       -1312.63008157 Ha      -35718.48185597 eV
  | XC energy correction          :        -158.67573835 Ha       -4317.78652720 eV
  | XC potential correction       :         209.63637595 Ha        5704.49603113 eV
  | Free-atom electrostatic energy:       -1053.27785539 Ha      -28661.14870825 eV
  | Hartree energy correction     :          -0.00000000 Ha          -0.00000000 eV
  | Entropy correction            :          -0.00000000 Ha          -0.00000000 eV
  | ---------------------------
  | Total energy                  :       -2314.94729937 Ha      -62992.92106028 eV
  | Total energy, T -> 0          :       -2314.94729937 Ha      -62992.92106028 eV  <-- do not rely on this value for anything but (periodic) metals
  | Electronic free energy        :       -2314.94729937 Ha      -62992.92106028 eV

  Derived energy quantities:
  | Kinetic energy                :        2318.86622697 Ha       63099.56050603 eV
  | Electrostatic energy          :       -4475.13778798 Ha     -121774.69503912 eV
  | Energy correction for multipole
  | error in Hartree potential    :           0.00000000 Ha           0.00000000 eV
  | Sum of eigenvalues per atom                           :       -4464.81023200 eV
  | Total energy (T->0) per atom                          :       -7874.11513254 eV  <-- do not rely on this value for anything but (periodic) metals
  | Electronic free energy per atom                       :       -7874.11513254 eV
  Initialize hartree_potential_storage
  Max. number of atoms included in rho_multipole:            8

  End scf initialization - timings             :  max(cpu_time)    wall_clock(cpu1)
  | Time for scf. initialization                :        0.597 s           0.605 s
  | Boundary condition initialization           :        0.025 s           0.025 s
  | Integration                                 :        0.319 s           0.322 s
  | Solution of K.-S. eqns.                     :        0.124 s           0.121 s
  | Grid partitioning                           :        0.032 s           0.032 s
  | Preloading free-atom quantities on grid     :        0.081 s           0.081 s
  | Free-atom superposition energy              :        0.030 s           0.030 s
  | Total energy evaluation                     :        0.000 s           0.009 s

  Partial memory accounting:
  | Current value for overall tracked memory usage:
  |   Minimum:        7.197 MB (on task 0)
  |   Maximum:        7.441 MB (on task 1)
  |   Average:        7.319 MB
  | Peak value for overall tracked memory usage:
  |   Minimum:       13.364 MB (on task 6 after allocating wave)
  |   Maximum:       14.137 MB (on task 3 after allocating wave)
  |   Average:       13.682 MB
  | Largest tracked array allocation so far:
  |   Minimum:        3.664 MB (hamiltonian_shell on task 2)
  |   Maximum:        4.200 MB (hamiltonian_shell on task 3)
  |   Average:        3.930 MB
  Note:  These values currently only include a subset of arrays which are explicitly tracked.
  The "true" memory usage will be greater.
------------------------------------------------------------
  Time for density update prior                :  max(cpu_time)    wall_clock(cpu1)
  | self-consistency iterative process          :        0.185 s           0.189 s
------------------------------------------------------------
Convergence:    q app. |  density  | eigen (eV) | Etot (eV) | forces (eV/A) |       CPU time |     Clock time
  SCF    1 : -0.23E-12 |  0.22E+00 |   0.41E+01 |  0.10E+00 |             . |        0.519 s |        0.525 s
  SCF    2 : -0.11E-12 |  0.21E+00 |   0.63E+02 |  0.63E+00 |             . |        0.519 s |        0.526 s
  SCF    3 : -0.14E-12 |  0.38E-01 |  -0.24E+02 |  0.53E-01 |             . |        0.495 s |        0.500 s
  SCF    4 : -0.59E-13 |  0.19E-01 |   0.86E+00 |  0.48E-02 |             . |        0.506 s |        0.511 s
  SCF    5 : -0.12E-12 |  0.56E-02 |  -0.35E+01 |  0.32E-02 |             . |        0.503 s |        0.509 s
  SCF    6 : -0.13E-12 |  0.20E-02 |   0.15E+00 |  0.55E-03 |             . |        0.482 s |        0.490 s
  SCF    7 : -0.17E-12 |  0.64E-03 |   0.19E+00 |  0.86E-04 |             . |        0.561 s |        0.570 s
  SCF    8 : -0.21E-12 |  0.13E-03 |  -0.15E-01 |  0.16E-04 |             . |        0.508 s |        0.513 s
  SCF    9 : -0.12E-12 |  0.53E-04 |   0.15E-01 |  0.37E-05 |             . |        0.495 s |        0.505 s
  SCF   10 : -0.33E-13 |  0.22E-04 |   0.29E-02 |  0.49E-05 |             . |        0.545 s |        0.555 s
  SCF   11 : -0.16E-12 |  0.87E-05 |  -0.34E-03 |  0.31E-05 |             . |        0.507 s |        0.519 s
  SCF   12 : -0.31E-12 |  0.15E-05 |  -0.25E-04 |  0.16E-06 |             . |        0.516 s |        0.526 s
  SCF   13 : -0.19E-12 |  0.98E-06 |   0.12E-03 |  0.82E-07 |             . |        0.488 s |        0.498 s
  SCF   14 : -0.15E-12 |  0.37E-06 |   0.14E-03 | -0.22E-07 |      0.18E+01 |        2.661 s |        2.640 s

  Total energy components:
  | Sum of eigenvalues            :       -1311.11376343 Ha      -35677.22073996 eV
  | XC energy correction          :        -158.78870130 Ha       -4320.86040545 eV
  | XC potential correction       :         209.78461276 Ha        5708.52976009 eV
  | Free-atom electrostatic energy:       -1053.27785539 Ha      -28661.14870825 eV
  | Hartree energy correction     :          -1.52252148 Ha         -41.42991747 eV
  | Entropy correction            :          -0.00000000 Ha          -0.00000000 eV
  | ---------------------------
  | Total energy                  :       -2314.91822884 Ha      -62992.13001104 eV
  | Total energy, T -> 0          :       -2314.91822884 Ha      -62992.13001104 eV  <-- do not rely on this value for anything but (periodic) metals
  | Electronic free energy        :       -2314.91822884 Ha      -62992.13001104 eV

  Derived energy quantities:
  | Kinetic energy                :        2318.07568089 Ha       63078.04865272 eV
  | Electrostatic energy          :       -4474.20520842 Ha     -121749.31825831 eV
  | Energy correction for multipole
  | error in Hartree potential    :           0.04760014 Ha           1.29526578 eV
  | Sum of eigenvalues per atom                           :       -4459.65259250 eV
  | Total energy (T->0) per atom                          :       -7874.01625138 eV  <-- do not rely on this value for anything but (periodic) metals
  | Electronic free energy per atom                       :       -7874.01625138 eV
  What follows are estimated values for band gap, HOMO, LUMO, etc.
  | They are estimated on a discrete k-point grid and not necessarily exact.
  | For converged numbers, create a DOS and/or band structure plot on a denser k-grid.

  Highest occupied state (VBM) at     -5.95433245 eV (relative to internal zero)
  | Occupation number:      2.00000000
  | K-point:       1 at    0.000000    0.000000    0.000000 (in units of recip. lattice)

  Lowest unoccupied state (CBM) at    -5.69823221 eV (relative to internal zero)
  | Occupation number:      0.00000000
  | K-point:       1 at    0.000000    0.000000    0.000000 (in units of recip. lattice)

  ESTIMATED overall HOMO-LUMO gap:      0.25610024 eV between HOMO at k-point 1 and LUMO at k-point 1
  | This appears to be a direct band gap.
  The gap value is above 0.2 eV. Unless you are using a very sparse k-point grid,
  this system is most likely an insulator or a semiconductor.

  | Chemical Potential                          :    -5.83549464 eV
  | Note that, for insulating systems, the printed 'chemical potential' value is not uniquely defined.
  | It can be anywhere in the energy gap, as long as it correctly separates occupied and unoccupied states.
  | In systems with a gap, the physically relevant chemical potential is the VBM or HOMO.

  Self-consistency cycle converged.

  Removing unitary transformations (pure translations, rotations) from forces on atoms.
  Atomic forces before filtering:
  | Net force on center of mass :  -0.249799E-02  0.653488E-02 -0.314410E-02 eV/A
  Atomic forces after filtering:
  | Net force on center of mass :  -0.267609E-15 -0.446015E-16 -0.892031E-16 eV/A

  Energy and forces in a compact form:
  | Total energy uncorrected      :         -0.629921300110429E+05 eV
  | Total energy corrected        :         -0.629921300110429E+05 eV  <-- do not rely on this value for anything but (periodic) metals
  | Electronic free energy        :         -0.629921300110429E+05 eV
  Total atomic forces (unitary forces cleaned) [eV/Ang]:
  |    1         -0.906022221009603E+00         -0.294871289695847E+00         -0.506315553856746E+00
  |    2          0.912216246428550E+00          0.683503618061072E-01          0.192895049196012E+00
  |    3         -0.115720440658520E+01         -0.289441872603574E+01         -0.793020246703413E+00
  |    4         -0.291006828313297E+00          0.154725250131593E+01          0.297961443070348E-01
  |    5         -0.310887210872442E+00          0.124080222175899E+01         -0.238387357748913E+00
  |    6         -0.726910820272404E+00         -0.265182210929725E+00         -0.616360734681938E+00
  |    7          0.190589144097195E+01          0.879177746486985E+00          0.149984059641991E+01
  |    8          0.573923799652444E+00         -0.281110604706705E+00          0.431552103068051E+00

  Removing unitary transformations (pure translations, rotations) from forces on atoms.
  Atomic forces before filtering:
  | Net force on center of mass :  -0.267609E-15 -0.446015E-16 -0.892031E-16 eV/A
  Atomic forces after filtering:
  | Net force on center of mass :  -0.267609E-15 -0.892031E-16 -0.892031E-16 eV/A
  @ DRIVER - WARNING: the stress tensor will not be computed
 ------------------------------------------------------------------------
 Atomic structure that was used in the preceding time step of the wrapper
                         x [A]             y [A]             z [A]
  lattice_vector         5.40883258        0.00000000        0.00000000
  lattice_vector         0.00000000        5.40883257        0.00000000
  lattice_vector         0.00000000        0.00000000        5.40883257

            atom         0.14294314       -0.07784984       -0.02401847  Si
            atom        -0.14925151        2.94781232        2.68285085  Si
            atom         2.79533905        0.24587859        2.71163052  Si
            atom         2.67094751        2.33286497        0.06414843  Si
            atom         1.15385677        1.27174763        1.53702962  Si
            atom         1.61690340        4.02157234        4.10789066  Si
            atom         4.14344429        1.34694820        3.98951897  Si
            atom         3.85231511        4.13752349        1.15744713  Si
 ------------------------------------------------------------------------
  @ DRIVER MODE: Message from server: STATUS      
  @ DRIVER MODE: Message from server: GETFORCE    
  @ DRIVER MODE: Returning v,forces,stress 

------------------------------------------------------------------------------
  Final output of selected total energy values:

  The following output summarizes some interesting total energy values
  at the end of a run (AFTER all relaxation, molecular dynamics, etc.).

  | Total energy of the DFT / Hartree-Fock s.c.f. calculation      :         -62992.130011043 eV
  | Final zero-broadening corrected energy (caution - metals only) :         -62992.130011043 eV
  | For reference only, the value of 1 Hartree used in FHI-aims is :             27.211384500 eV
  | For reference only, the overall average (free atom contribution
  | + realspace contribution) of the electrostatic potential after
  | s.c.f. convergence is                                          :            -13.071976033 eV

  Before relying on these values, please be sure to understand exactly which
  total energy value is referred to by a given number. Different objects may
  all carry the same name 'total energy'. Definitions:

  Total energy of the DFT / Hartree-Fock s.c.f. calculation:
  | Note that this energy does not include ANY quantities calculated after the
  | s.c.f. cycle, in particular not ANY RPA, MP2, etc. many-body perturbation terms.

  Final zero-broadening corrected energy:
  | For metallic systems only, a broadening of the occupation numbers at the Fermi
  | level can be extrapolated back to zero broadening by an electron-gas inspired
  | formula. For all systems that are not real metals, this value can be
  | meaningless and should be avoided.

------------------------------------------------------------------------------
  Methods described in the following list of references were used in this FHI-aims run.
  If you publish the results, please make sure to cite these reference if they apply.
  FHI-aims is an academic code, and for our developers (often, Ph.D. students
  and postdocs), scientific credit in the community is essential.
  Thank you for helping us!

  For any use of FHI-aims, please cite:

    Volker Blum, Ralf Gehrke, Felix Hanke, Paula Havu, Ville Havu,
    Xinguo Ren, Karsten Reuter, and Matthias Scheffler
    'Ab initio molecular simulations with numeric atom-centered orbitals'
    Computer Physics Communications 180, 2175-2196 (2009)
    http://doi.org/10.1016/j.cpc.2009.06.022


  The provided symmetry information was generated with SPGlib:

    Atsushi Togo, Yusuke Seto, Dimitar Pashov
    SPGlib 1.7.3 obtained from http://spglib.sourceforge.net
    Licence: New BSD license
    Copyright (C) 2008 Atsushi Togo


  The ELSI infrastructure was used in your run to solve the Kohn-Sham electronic structure.
  Please check out http://elsi-interchange.org to learn more.
  If scalability is important for your project, please acknowledge ELSI by citing:

    V. W-z. Yu, F. Corsetti, A. Garcia, W. P. Huhn, M. Jacquelin, W. Jia,
    B. Lange, L. Lin, J. Lu, W. Mi, A. Seifitokaldani, A. Vazquez-Mayagoitia,
    C. Yang, H. Yang, and V. Blum
    'ELSI: A unified software interface for Kohn-Sham electronic structure solvers'
    Computer Physics Communications 222, 267-285 (2018).
    http://doi.org/10.1016/j.cpc.2017.09.007


  For the real-space grid partitioning and parallelization used in this calculation, please cite:

    Ville Havu, Volker Blum, Paula Havu, and Matthias Scheffler,
    'Efficient O(N) integration for all-electron electronic structure calculation'
    'using numerically tabulated basis functions'
    Journal of Computational Physics 228, 8367-8379 (2009).
    http://doi.org/10.1016/j.jcp.2009.08.008

  Of course, there are many other important community references, e.g., those cited in the
  above references. Our list is limited to references that describe implementations in the
  FHI-aims code. The reason is purely practical (length of this list) - please credit others as well.

------------------------------------------------------------
          Leaving FHI-aims.
          Date     :  20250610, Time     :  152209.740

          Computational steps:
          | Number of self-consistency cycles          :           14
          | Number of SCF (re)initializations          :            1

          Detailed time accounting                     :  max(cpu_time)    wall_clock(cpu1)
          | Total time                                  :       10.233 s          10.490 s
          | Preparation time                            :        0.088 s           0.090 s
          | Boundary condition initalization            :        0.025 s           0.025 s
          | Grid partitioning                           :        0.032 s           0.032 s
          | Preloading free-atom quantities on grid     :        0.081 s           0.081 s
          | Free-atom superposition energy              :        0.030 s           0.030 s
          | Total time for integrations                 :        2.791 s           2.825 s
          | Total time for solution of K.-S. equations  :        1.084 s           1.090 s
          | Total time for density & force components   :        4.145 s           4.125 s
          | Total time for mixing                       :        0.005 s           0.005 s
          | Total time for Hartree multipole update     :        0.027 s           0.029 s
          | Total time for Hartree multipole sum        :        1.399 s           1.408 s
          | Total time for total energy evaluation      :        0.001 s           0.009 s
          | Total time NSC force correction             :        0.516 s           0.533 s
          | Total time for scaled ZORA corrections      :        0.000 s           0.000 s

          Partial memory accounting:
          | Residual value for overall tracked memory usage across tasks:     0.000000 MB (should be 0.000000 MB)
          | Peak values for overall tracked memory usage:
          |   Minimum:       20.118 MB (on task 6 after allocating d_wave)
          |   Maximum:       21.255 MB (on task 3 after allocating d_wave)
          |   Average:       20.571 MB
          | Largest tracked array allocation:
          |   Minimum:        3.664 MB (hamiltonian_shell on task 2)
          |   Maximum:        4.200 MB (hamiltonian_shell on task 3)
          |   Average:        3.930 MB
          Note:  These values currently only include a subset of arrays which are explicitly tracked.
          The "true" memory usage will be greater.

          Have a nice day.
------------------------------------------------------------
