nqpoint: 200    
npath: 4      
segment_nqpoint:
- 50
- 50
- 50
- 50
labels:
- [ 'G', 'X' ]
- [ 'X', 'U|K' ]
- [ 'U|K', 'G' ]
- [ 'G', 'L' ]
reciprocal_lattice:
- [  -0.18455273,   0.18455274,   0.18455274 ] # a*
- [   0.18455273,  -0.18455274,   0.18455274 ] # b*
- [   0.18455273,   0.18455274,  -0.18455274 ] # c*
natom: 2      
lattice:
- [    -0.000000000001000,     2.709252719577000,     2.709252719609999 ] # a
- [     2.709252757352000,    -0.000000000010000,     2.709252719619000 ] # b
- [     2.709252757329000,     2.709252719563000,     0.000000000013000 ] # c
points:
- symbol: Si # 1
  coordinates: [  0.999999999986000,  0.999999999993000,  0.000000000018000 ]
  mass: 28.085000
- symbol: Si # 2
  coordinates: [  0.250000000013998,  0.250000000007000,  0.249999999982001 ]
  mass: 28.085000

phonon:
- q-position: [    0.0000000,    0.0000000,    0.0000000 ]
  distance:    0.0000000
  band:
  - # 1
    frequency:    0.0000001708
  - # 2
    frequency:    0.0000002739
  - # 3
    frequency:    0.0000003641
  - # 4
    frequency:   15.4724733811
  - # 5
    frequency:   15.4724733811
  - # 6
    frequency:   15.4724733811

- q-position: [    0.0102041,    0.0000000,    0.0102041 ]
  distance:    0.0037664
  band:
  - # 1
    frequency:    0.2033855037
  - # 2
    frequency:    0.2033855037
  - # 3
    frequency:    0.3101111904
  - # 4
    frequency:   15.4686281385
  - # 5
    frequency:   15.4686281385
  - # 6
    frequency:   15.4714129340

- q-position: [    0.0204082,    0.0000000,    0.0204082 ]
  distance:    0.0075328
  band:
  - # 1
    frequency:    0.4062388734
  - # 2
    frequency:    0.4062388735
  - # 3
    frequency:    0.6200492434
  - # 4
    frequency:   15.4571401359
  - # 5
    frequency:   15.4571401359
  - # 6
    frequency:   15.4682296885

- q-position: [    0.0306122,    0.0000000,    0.0306122 ]
  distance:    0.0112991
  band:
  - # 1
    frequency:    0.6080265344
  - # 2
    frequency:    0.6080265344
  - # 3
    frequency:    0.9296409716
  - # 4
    frequency:   15.4381518785
  - # 5
    frequency:   15.4381518785
  - # 6
    frequency:   15.4629179331

- q-position: [    0.0408163,    0.0000000,    0.0408163 ]
  distance:    0.0150655
  band:
  - # 1
    frequency:    0.8082122065
  - # 2
    frequency:    0.8082122066
  - # 3
    frequency:    1.2387130969
  - # 4
    frequency:   15.4118986421
  - # 5
    frequency:   15.4118986421
  - # 6
    frequency:   15.4554681541

- q-position: [    0.0510204,    0.0000000,    0.0510204 ]
  distance:    0.0188319
  band:
  - # 1
    frequency:    1.0062559936
  - # 2
    frequency:    1.0062559937
  - # 3
    frequency:    1.5470922292
  - # 4
    frequency:   15.3787051238
  - # 5
    frequency:   15.3787051238
  - # 6
    frequency:   15.4458670446

- q-position: [    0.0612245,    0.0000000,    0.0612245 ]
  distance:    0.0225983
  band:
  - # 1
    frequency:    1.2016139927
  - # 2
    frequency:    1.2016139928
  - # 3
    frequency:    1.8546048726
  - # 4
    frequency:   15.3389807595
  - # 5
    frequency:   15.3389807596
  - # 6
    frequency:   15.4340975201

- q-position: [    0.0714286,    0.0000000,    0.0714286 ]
  distance:    0.0263647
  band:
  - # 1
    frequency:    1.3937385858
  - # 2
    frequency:    1.3937385859
  - # 3
    frequency:    2.1610774678
  - # 4
    frequency:   15.2932137135
  - # 5
    frequency:   15.2932137135
  - # 6
    frequency:   15.4201387414

- q-position: [    0.0816327,    0.0000000,    0.0816327 ]
  distance:    0.0301311
  band:
  - # 1
    frequency:    1.5820795594
  - # 2
    frequency:    1.5820795595
  - # 3
    frequency:    2.4663364770
  - # 4
    frequency:   15.2419635568
  - # 5
    frequency:   15.2419635568
  - # 6
    frequency:   15.4039661492

- q-position: [    0.0918367,    0.0000000,    0.0918367 ]
  distance:    0.0338974
  band:
  - # 1
    frequency:    1.7660861817
  - # 2
    frequency:    1.7660861818
  - # 3
    frequency:    2.7702085171
  - # 4
    frequency:   15.1858526608
  - # 5
    frequency:   15.1858526609
  - # 6
    frequency:   15.3855515116

- q-position: [    0.1020408,    0.0000000,    0.1020408 ]
  distance:    0.0376638
  band:
  - # 1
    frequency:    1.9452103400
  - # 2
    frequency:    1.9452103402
  - # 3
    frequency:    3.0725205460
  - # 4
    frequency:   15.1255563506
  - # 5
    frequency:   15.1255563507
  - # 6
    frequency:   15.3648629886

- q-position: [    0.1122449,    0.0000000,    0.1122449 ]
  distance:    0.0414302
  band:
  - # 1
    frequency:    2.1189108098
  - # 2
    frequency:    2.1189108100
  - # 3
    frequency:    3.3731001042
  - # 4
    frequency:   15.0617918856
  - # 5
    frequency:   15.0617918857
  - # 6
    frequency:   15.3418652164

- q-position: [    0.1224490,    0.0000000,    0.1224490 ]
  distance:    0.0451966
  band:
  - # 1
    frequency:    2.2866586845
  - # 2
    frequency:    2.2866586847
  - # 3
    frequency:    3.6717756128
  - # 4
    frequency:   14.9953063694
  - # 5
    frequency:   14.9953063695
  - # 6
    frequency:   15.3165194129

- q-position: [    0.1326531,    0.0000000,    0.1326531 ]
  distance:    0.0489630
  band:
  - # 1
    frequency:    2.4479439418
  - # 2
    frequency:    2.4479439420
  - # 3
    frequency:    3.9683767273
  - # 4
    frequency:   14.9268637317
  - # 5
    frequency:   14.9268637317
  - # 6
    frequency:   15.2887835098

- q-position: [    0.1428571,    0.0000000,    0.1428571 ]
  distance:    0.0527294
  band:
  - # 1
    frequency:    2.6022830616
  - # 2
    frequency:    2.6022830618
  - # 3
    frequency:    4.2627347454
  - # 4
    frequency:   14.8572309759
  - # 5
    frequency:   14.8572309760
  - # 6
    frequency:   15.2586123089

- q-position: [    0.1530612,    0.0000000,    0.1530612 ]
  distance:    0.0564957
  band:
  - # 1
    frequency:    2.7492275357
  - # 2
    frequency:    2.7492275360
  - # 3
    frequency:    4.5546830640
  - # 4
    frequency:   14.7871639485
  - # 5
    frequency:   14.7871639485
  - # 6
    frequency:   15.2259576676

- q-position: [    0.1632653,    0.0000000,    0.1632653 ]
  distance:    0.0602621
  band:
  - # 1
    frequency:    2.8883730330
  - # 2
    frequency:    2.8883730333
  - # 3
    frequency:    4.8440576798
  - # 4
    frequency:   14.7173929468
  - # 5
    frequency:   14.7173929468
  - # 6
    frequency:   15.1907687117

- q-position: [    0.1734694,    0.0000000,    0.1734694 ]
  distance:    0.0640285
  band:
  - # 1
    frequency:    3.0193688968
  - # 2
    frequency:    3.0193688971
  - # 3
    frequency:    5.1306977279
  - # 4
    frequency:   14.6486085538
  - # 5
    frequency:   14.6486085539
  - # 6
    frequency:   15.1529920752

- q-position: [    0.1836735,    0.0000000,    0.1836735 ]
  distance:    0.0677949
  band:
  - # 1
    frequency:    3.1419275791
  - # 2
    frequency:    3.1419275795
  - # 3
    frequency:    5.4144460489
  - # 4
    frequency:   14.5814481438
  - # 5
    frequency:   14.5814481439
  - # 6
    frequency:   15.1125721662

- q-position: [    0.1938776,    0.0000000,    0.1938776 ]
  distance:    0.0715613
  band:
  - # 1
    frequency:    3.2558335453
  - # 2
    frequency:    3.2558335456
  - # 3
    frequency:    5.6951497748
  - # 4
    frequency:   14.5164835502
  - # 5
    frequency:   14.5164835502
  - # 6
    frequency:   15.0694514562

- q-position: [    0.2040816,    0.0000000,    0.2040816 ]
  distance:    0.0753276
  band:
  - # 1
    frequency:    3.3609511447
  - # 2
    frequency:    3.3609511450
  - # 3
    frequency:    5.9726609252
  - # 4
    frequency:   14.4542104064
  - # 5
    frequency:   14.4542104065
  - # 6
    frequency:   15.0235707885

- q-position: [    0.2142857,    0.0000000,    0.2142857 ]
  distance:    0.0790940
  band:
  - # 1
    frequency:    3.4572309301
  - # 2
    frequency:    3.4572309305
  - # 3
    frequency:    6.2468370017
  - # 4
    frequency:   14.3950396579
  - # 5
    frequency:   14.3950396580
  - # 6
    frequency:   14.9748697030

- q-position: [    0.2244898,    0.0000000,    0.2244898 ]
  distance:    0.0828604
  band:
  - # 1
    frequency:    3.5447139409
  - # 2
    frequency:    3.5447139413
  - # 3
    frequency:    6.5175415699
  - # 4
    frequency:   14.3392916877
  - # 5
    frequency:   14.3392916878
  - # 6
    frequency:   14.9232867709

- q-position: [    0.2346939,    0.0000000,    0.2346939 ]
  distance:    0.0866268
  band:
  - # 1
    frequency:    3.6235335349
  - # 2
    frequency:    3.6235335353
  - # 3
    frequency:    6.7846448176
  - # 4
    frequency:   14.2871933991
  - # 5
    frequency:   14.2871933993
  - # 6
    frequency:   14.8687599346

- q-position: [    0.2448980,    0.0000000,    0.2448980 ]
  distance:    0.0903932
  band:
  - # 1
    frequency:    3.6939144746
  - # 2
    frequency:    3.6939144750
  - # 3
    frequency:    7.0480240783
  - # 4
    frequency:   14.2388784648
  - # 5
    frequency:   14.2388784649
  - # 6
    frequency:   14.8112268458

- q-position: [    0.2551020,    0.0000000,    0.2551020 ]
  distance:    0.0941596
  band:
  - # 1
    frequency:    3.7561691167
  - # 2
    frequency:    3.7561691172
  - # 3
    frequency:    7.3075643105
  - # 4
    frequency:   14.1943907751
  - # 5
    frequency:   14.1943907752
  - # 6
    frequency:   14.7506251961

- q-position: [    0.2653061,    0.0000000,    0.2653061 ]
  distance:    0.0979259
  band:
  - # 1
    frequency:    3.8106907282
  - # 2
    frequency:    3.8106907286
  - # 3
    frequency:    7.5631585205
  - # 4
    frequency:   14.1536909402
  - # 5
    frequency:   14.1536909403
  - # 6
    frequency:   14.6868930329

- q-position: [    0.2755102,    0.0000000,    0.2755102 ]
  distance:    0.1016923
  band:
  - # 1
    frequency:    3.8579441233
  - # 2
    frequency:    3.8579441238
  - # 3
    frequency:    7.8147081233
  - # 4
    frequency:   14.1166655135
  - # 5
    frequency:   14.1166655137
  - # 6
    frequency:   14.6199690544

- q-position: [    0.2857143,    0.0000000,    0.2857143 ]
  distance:    0.1054587
  band:
  - # 1
    frequency:    3.8984539784
  - # 2
    frequency:    3.8984539789
  - # 3
    frequency:    8.0621232316
  - # 4
    frequency:   14.0831384453
  - # 5
    frequency:   14.0831384454
  - # 6
    frequency:   14.5497928784

- q-position: [    0.2959184,    0.0000000,    0.2959184 ]
  distance:    0.1092251
  band:
  - # 1
    frequency:    3.9327913113
  - # 2
    frequency:    3.9327913118
  - # 3
    frequency:    8.3053228671
  - # 4
    frequency:   14.0528841525
  - # 5
    frequency:   14.0528841527
  - # 6
    frequency:   14.4763052775

- q-position: [    0.3061224,    0.0000000,    0.3061224 ]
  distance:    0.1129915
  band:
  - # 1
    frequency:    3.9615587090
  - # 2
    frequency:    3.9615587095
  - # 3
    frequency:    8.5442350905
  - # 4
    frequency:   14.0256415191
  - # 5
    frequency:   14.0256415193
  - # 6
    frequency:   14.3994483785

- q-position: [    0.3163265,    0.0000000,    0.3163265 ]
  distance:    0.1167579
  band:
  - # 1
    frequency:    3.9853749356
  - # 2
    frequency:    3.9853749361
  - # 3
    frequency:    8.7787970463
  - # 4
    frequency:   14.0011281196
  - # 5
    frequency:   14.0011281197
  - # 6
    frequency:   14.3191658202

- q-position: [    0.3265306,    0.0000000,    0.3265306 ]
  distance:    0.1205242
  band:
  - # 1
    frequency:    4.0048595663
  - # 2
    frequency:    4.0048595668
  - # 3
    frequency:    9.0089549218
  - # 4
    frequency:   13.9790539902
  - # 5
    frequency:   13.9790539904
  - # 6
    frequency:   14.2354028679

- q-position: [    0.3367347,    0.0000000,    0.3367347 ]
  distance:    0.1242906
  band:
  - # 1
    frequency:    4.0206182655
  - # 2
    frequency:    4.0206182660
  - # 3
    frequency:    9.2346638202
  - # 4
    frequency:   13.9591343451
  - # 5
    frequency:   13.9591343453
  - # 6
    frequency:   14.1481064831

- q-position: [    0.3469388,    0.0000000,    0.3469388 ]
  distance:    0.1280570
  band:
  - # 1
    frequency:    4.0332292768
  - # 2
    frequency:    4.0332292772
  - # 3
    frequency:    9.4558875515
  - # 4
    frequency:   13.9411007357
  - # 5
    frequency:   13.9411007358
  - # 6
    frequency:   14.0572253487

- q-position: [    0.3571429,    0.0000000,    0.3571429 ]
  distance:    0.1318234
  band:
  - # 1
    frequency:    4.0432316170
  - # 2
    frequency:    4.0432316175
  - # 3
    frequency:    9.6725983441
  - # 4
    frequency:   13.9247102739
  - # 5
    frequency:   13.9247102740
  - # 6
    frequency:   13.9627098504

- q-position: [    0.3673469,    0.0000000,    0.3673469 ]
  distance:    0.1355898
  band:
  - # 1
    frequency:    4.0511153823
  - # 2
    frequency:    4.0511153827
  - # 3
    frequency:    9.8847764839
  - # 4
    frequency:   13.8645120176
  - # 5
    frequency:   13.9097526670
  - # 6
    frequency:   13.9097526671

- q-position: [    0.3775510,    0.0000000,    0.3775510 ]
  distance:    0.1393561
  band:
  - # 1
    frequency:    4.0573144708
  - # 2
    frequency:    4.0573144713
  - # 3
    frequency:   10.0924098881
  - # 4
    frequency:   13.7625854280
  - # 5
    frequency:   13.8960549335
  - # 6
    frequency:   13.8960549337

- q-position: [    0.3877551,    0.0000000,    0.3877551 ]
  distance:    0.1431225
  band:
  - # 1
    frequency:    4.0622019250
  - # 2
    frequency:    4.0622019254
  - # 3
    frequency:   10.2954936221
  - # 4
    frequency:   13.6568850810
  - # 5
    frequency:   13.8834837892
  - # 6
    frequency:   13.8834837893

- q-position: [    0.3979592,    0.0000000,    0.3979592 ]
  distance:    0.1468889
  band:
  - # 1
    frequency:    4.0660879727
  - # 2
    frequency:    4.0660879731
  - # 3
    frequency:   10.4940293704
  - # 4
    frequency:   13.5473672473
  - # 5
    frequency:   13.8719457923
  - # 6
    frequency:   13.8719457924

- q-position: [    0.4081633,    0.0000000,    0.4081633 ]
  distance:    0.1506553
  band:
  - # 1
    frequency:    4.0692207306
  - # 2
    frequency:    4.0692207310
  - # 3
    frequency:   10.6880248712
  - # 4
    frequency:   13.4339893011
  - # 5
    frequency:   13.8613854321
  - # 6
    frequency:   13.8613854322

- q-position: [    0.4183673,    0.0000000,    0.4183673 ]
  distance:    0.1544217
  band:
  - # 1
    frequency:    4.0717894004
  - # 2
    frequency:    4.0717894007
  - # 3
    frequency:   10.8774933274
  - # 4
    frequency:   13.3167095445
  - # 5
    frequency:   13.8517814168
  - # 6
    frequency:   13.8517814169

- q-position: [    0.4285714,    0.0000000,    0.4285714 ]
  distance:    0.1581881
  band:
  - # 1
    frequency:    4.0739296650
  - # 2
    frequency:    4.0739296652
  - # 3
    frequency:   11.0624528044
  - # 4
    frequency:   13.1954870328
  - # 5
    frequency:   13.8431414871
  - # 6
    frequency:   13.8431414872

- q-position: [    0.4387755,    0.0000000,    0.4387755 ]
  distance:    0.1619544
  band:
  - # 1
    frequency:    4.0757308720
  - # 2
    frequency:    4.0757308722
  - # 3
    frequency:   11.2429256287
  - # 4
    frequency:   13.0702814097
  - # 5
    frequency:   13.8354961282
  - # 6
    frequency:   13.8354961283

- q-position: [    0.4489796,    0.0000000,    0.4489796 ]
  distance:    0.1657208
  band:
  - # 1
    frequency:    4.0772444901
  - # 2
    frequency:    4.0772444903
  - # 3
    frequency:   11.4189377961
  - # 4
    frequency:   12.9410527618
  - # 5
    frequency:   13.8288915921
  - # 6
    frequency:   13.8288915922

- q-position: [    0.4591837,    0.0000000,    0.4591837 ]
  distance:    0.1694872
  band:
  - # 1
    frequency:    4.0784932473
  - # 2
    frequency:    4.0784932475
  - # 3
    frequency:   11.5905184039
  - # 4
    frequency:   12.8077615026
  - # 5
    frequency:   13.8233826634
  - # 6
    frequency:   13.8233826634

- q-position: [    0.4693878,    0.0000000,    0.4693878 ]
  distance:    0.1732536
  band:
  - # 1
    frequency:    4.0794803162
  - # 2
    frequency:    4.0794803163
  - # 3
    frequency:   11.7576991142
  - # 4
    frequency:   12.6703682927
  - # 5
    frequency:   13.8190256054
  - # 6
    frequency:   13.8190256054

- q-position: [    0.4795918,    0.0000000,    0.4795918 ]
  distance:    0.1770200
  band:
  - # 1
    frequency:    4.0801979087
  - # 2
    frequency:    4.0801979088
  - # 3
    frequency:   11.9205136598
  - # 4
    frequency:   12.5288340060
  - # 5
    frequency:   13.8158717069
  - # 6
    frequency:   13.8158717069

- q-position: [    0.4897959,    0.0000000,    0.4897959 ]
  distance:    0.1807864
  band:
  - # 1
    frequency:    4.0806346813
  - # 2
    frequency:    4.0806346814
  - # 3
    frequency:   12.0789973990
  - # 4
    frequency:   12.3831197471
  - # 5
    frequency:   13.8139618131
  - # 6
    frequency:   13.8139618131

- q-position: [    0.5000000,    0.0000000,    0.5000000 ]
  distance:    0.1845527
  band:
  - # 1
    frequency:    4.0807814309
  - # 2
    frequency:    4.0807814309
  - # 3
    frequency:   12.2331869270
  - # 4
    frequency:   12.2331869270
  - # 5
    frequency:   13.8133221677
  - # 6
    frequency:   13.8133221677

- q-position: [    0.5000000,    0.0000000,    0.5000000 ]
  distance:    0.1845527
  band:
  - # 1
    frequency:    4.0807814309
  - # 2
    frequency:    4.0807814309
  - # 3
    frequency:   12.2331869270
  - # 4
    frequency:   12.2331869270
  - # 5
    frequency:   13.8133221677
  - # 6
    frequency:   13.8133221677

- q-position: [    0.5025510,    0.0051020,    0.5025510 ]
  distance:    0.1858844
  band:
  - # 1
    frequency:    4.0809082405
  - # 2
    frequency:    4.0825913769
  - # 3
    frequency:   12.2321306893
  - # 4
    frequency:   12.2323445374
  - # 5
    frequency:   13.8133498661
  - # 6
    frequency:   13.8137502872

- q-position: [    0.5051020,    0.0102041,    0.5051020 ]
  distance:    0.1872160
  band:
  - # 1
    frequency:    4.0812882336
  - # 2
    frequency:    4.0880122831
  - # 3
    frequency:   12.2289656696
  - # 4
    frequency:   12.2298208036
  - # 5
    frequency:   13.8134329416
  - # 6
    frequency:   13.8150317415

- q-position: [    0.5076531,    0.0153061,    0.5076531 ]
  distance:    0.1885476
  band:
  - # 1
    frequency:    4.0819201057
  - # 2
    frequency:    4.0970174730
  - # 3
    frequency:   12.2237029396
  - # 4
    frequency:   12.2256259505
  - # 5
    frequency:   13.8135713348
  - # 6
    frequency:   13.8171578921

- q-position: [    0.5102041,    0.0204082,    0.5102041 ]
  distance:    0.1898792
  band:
  - # 1
    frequency:    4.0828016896
  - # 2
    frequency:    4.1095628780
  - # 3
    frequency:   12.2163609237
  - # 4
    frequency:   12.2197767574
  - # 5
    frequency:   13.8137649478
  - # 6
    frequency:   13.8201145883

- q-position: [    0.5127551,    0.0255102,    0.5127551 ]
  distance:    0.1912108
  band:
  - # 1
    frequency:    4.0839299668
  - # 2
    frequency:    4.1255876107
  - # 3
    frequency:   12.2069653563
  - # 4
    frequency:   12.2122961807
  - # 5
    frequency:   13.8140136451
  - # 6
    frequency:   13.8238825213

- q-position: [    0.5153061,    0.0306122,    0.5153061 ]
  distance:    0.1925424
  band:
  - # 1
    frequency:    4.0853010825
  - # 2
    frequency:    4.1450147397
  - # 3
    frequency:   12.1955492219
  - # 4
    frequency:   12.2032128523
  - # 5
    frequency:   13.8143172557
  - # 6
    frequency:   13.8284376936

- q-position: [    0.5178571,    0.0357143,    0.5178571 ]
  distance:    0.1938741
  band:
  - # 1
    frequency:    4.0869103649
  - # 2
    frequency:    4.1677522411
  - # 3
    frequency:   12.1821526783
  - # 4
    frequency:   12.1925604803
  - # 5
    frequency:   13.8146755749
  - # 6
    frequency:   13.8337519771

- q-position: [    0.5204082,    0.0408163,    0.5204082 ]
  distance:    0.1952057
  band:
  - # 1
    frequency:    4.0887523487
  - # 2
    frequency:    4.1936940934
  - # 3
    frequency:   12.1668229620
  - # 4
    frequency:   12.1803771797
  - # 5
    frequency:   13.8150883674
  - # 6
    frequency:   13.8397937342

- q-position: [    0.5229592,    0.0459184,    0.5229592 ]
  distance:    0.1965373
  band:
  - # 1
    frequency:    4.0908208017
  - # 2
    frequency:    4.2227214858
  - # 3
    frequency:   12.1496142766
  - # 4
    frequency:   12.1667047609
  - # 5
    frequency:   13.8155553703
  - # 6
    frequency:   13.8465284717

- q-position: [    0.5255102,    0.0510204,    0.5255102 ]
  distance:    0.1978689
  band:
  - # 1
    frequency:    4.0931087561
  - # 2
    frequency:    4.2547041035
  - # 3
    frequency:   12.1305876634
  - # 4
    frequency:   12.1515880049
  - # 5
    frequency:   13.8160762967
  - # 6
    frequency:   13.8539195026

- q-position: [    0.5280612,    0.0561224,    0.5280612 ]
  distance:    0.1992005
  band:
  - # 1
    frequency:    4.0956085418
  - # 2
    frequency:    4.2895014569
  - # 3
    frequency:   12.1098108542
  - # 4
    frequency:   12.1350739482
  - # 5
    frequency:   13.8166508397
  - # 6
    frequency:   13.8619285902

- q-position: [    0.5306122,    0.0612245,    0.5306122 ]
  distance:    0.2005321
  band:
  - # 1
    frequency:    4.0983118236
  - # 2
    frequency:    4.3269642230
  - # 3
    frequency:   12.0873581065
  - # 4
    frequency:   12.1172112002
  - # 5
    frequency:   13.8172786768
  - # 6
    frequency:   13.8705165555

- q-position: [    0.5331633,    0.0663265,    0.5331633 ]
  distance:    0.2018638
  band:
  - # 1
    frequency:    4.1012096413
  - # 2
    frequency:    4.3669355705
  - # 3
    frequency:   12.0633100193
  - # 4
    frequency:   12.0980493067
  - # 5
    frequency:   13.8179594747
  - # 6
    frequency:   13.8796438317

- q-position: [    0.5357143,    0.0714286,    0.5357143 ]
  distance:    0.2031954
  band:
  - # 1
    frequency:    4.1042924511
  - # 2
    frequency:    4.4092524441
  - # 3
    frequency:   12.0377533315
  - # 4
    frequency:   12.0776381736
  - # 5
    frequency:   13.8186928947
  - # 6
    frequency:   13.8892709565

- q-position: [    0.5382653,    0.0765306,    0.5382653 ]
  distance:    0.2045270
  band:
  - # 1
    frequency:    4.1075501705
  - # 2
    frequency:    4.4537467881
  - # 3
    frequency:   12.0107807002
  - # 4
    frequency:   12.0560275552
  - # 5
    frequency:   13.8194785976
  - # 6
    frequency:   13.8993589948

- q-position: [    0.5408163,    0.0816327,    0.5408163 ]
  distance:    0.2058586
  band:
  - # 1
    frequency:    4.1109722242
  - # 2
    frequency:    4.5002466950
  - # 3
    frequency:   11.9824904593
  - # 4
    frequency:   12.0332666122
  - # 5
    frequency:   13.8203162501
  - # 6
    frequency:   13.9098698903

- q-position: [    0.5433673,    0.0867347,    0.5433673 ]
  distance:    0.2071902
  band:
  - # 1
    frequency:    4.1145475913
  - # 2
    frequency:    4.5485774667
  - # 3
    frequency:   11.9529863583
  - # 4
    frequency:   12.0094035379
  - # 5
    frequency:   13.8212055302
  - # 6
    frequency:   13.9207667478

- q-position: [    0.5459184,    0.0918367,    0.5459184 ]
  distance:    0.2085218
  band:
  - # 1
    frequency:    4.1182648546
  - # 2
    frequency:    4.5985625854
  - # 3
    frequency:   11.9223772792
  - # 4
    frequency:   11.9844852508
  - # 5
    frequency:   13.8221461340
  - # 6
    frequency:   13.9320140475

- q-position: [    0.5484694,    0.0969388,    0.5484694 ]
  distance:    0.2098535
  band:
  - # 1
    frequency:    4.1221122493
  - # 2
    frequency:    4.6500245887
  - # 3
    frequency:   11.8907769322
  - # 4
    frequency:   11.9585571486
  - # 5
    frequency:   13.8231377817
  - # 6
    frequency:   13.9435778002

- q-position: [    0.5510204,    0.1020408,    0.5510204 ]
  distance:    0.2111851
  band:
  - # 1
    frequency:    4.1260777129
  - # 2
    frequency:    4.7027858537
  - # 3
    frequency:   11.8583035278
  - # 4
    frequency:   11.9316629188
  - # 5
    frequency:   13.8241802245
  - # 6
    frequency:   13.9554256460

- q-position: [    0.5535714,    0.1071429,    0.5535714 ]
  distance:    0.2125167
  band:
  - # 1
    frequency:    4.1301489356
  - # 2
    frequency:    4.7566692917
  - # 3
    frequency:   11.8250794256
  - # 4
    frequency:   11.9038443992
  - # 5
    frequency:   13.8252732513
  - # 6
    frequency:   13.9675269067

- q-position: [    0.5561224,    0.1122449,    0.5561224 ]
  distance:    0.2138483
  band:
  - # 1
    frequency:    4.1343134093
  - # 2
    frequency:    4.8114989615
  - # 3
    frequency:   11.7912307572
  - # 4
    frequency:   11.8751414823
  - # 5
    frequency:   13.8264166953
  - # 6
    frequency:   13.9798525968

- q-position: [    0.5586735,    0.1173469,    0.5586735 ]
  distance:    0.2151799
  band:
  - # 1
    frequency:    4.1385584769
  - # 2
    frequency:    4.8671006096
  - # 3
    frequency:   11.7568870234
  - # 4
    frequency:   11.8455920578
  - # 5
    frequency:   13.8276104413
  - # 6
    frequency:   13.9923754020

- q-position: [    0.5612245,    0.1224490,    0.5612245 ]
  distance:    0.2165115
  band:
  - # 1
    frequency:    4.1428713807
  - # 2
    frequency:    4.9233021458
  - # 3
    frequency:   11.7221806633
  - # 4
    frequency:   11.8152319868
  - # 5
    frequency:   13.8288544322
  - # 6
    frequency:   14.0050696302

- q-position: [    0.5637755,    0.1275510,    0.5637755 ]
  distance:    0.2178432
  band:
  - # 1
    frequency:    4.1472393090
  - # 2
    frequency:    4.9799340652
  - # 3
    frequency:   11.6872465951
  - # 4
    frequency:   11.7840951036
  - # 5
    frequency:   13.8301486762
  - # 6
    frequency:   14.0179111414

- q-position: [    0.5663265,    0.1326531,    0.5663265 ]
  distance:    0.2191748
  band:
  - # 1
    frequency:    4.1516494421
  - # 2
    frequency:    5.0368298267
  - # 3
    frequency:   11.6522217255
  - # 4
    frequency:   11.7522132389
  - # 5
    frequency:   13.8314932534
  - # 6
    frequency:   14.0308772628

- q-position: [    0.5688776,    0.1377551,    0.5688776 ]
  distance:    0.2205064
  band:
  - # 1
    frequency:    4.1560889959
  - # 2
    frequency:    5.0938261987
  - # 3
    frequency:   11.6172444294
  - # 4
    frequency:   11.7196162621
  - # 5
    frequency:   13.8328883229
  - # 6
    frequency:   14.0439466931

- q-position: [    0.5714286,    0.1428571,    0.5714286 ]
  distance:    0.2218380
  band:
  - # 1
    frequency:    4.1605452642
  - # 2
    frequency:    5.1507635816
  - # 3
    frequency:   11.5824539960
  - # 4
    frequency:   11.6863321375
  - # 5
    frequency:   13.8343341292
  - # 6
    frequency:   14.0570993995

- q-position: [    0.5739796,    0.1479592,    0.5739796 ]
  distance:    0.2231696
  band:
  - # 1
    frequency:    4.1650056581
  - # 2
    frequency:    5.2074863167
  - # 3
    frequency:   11.5479900428
  - # 4
    frequency:   11.6523869929
  - # 5
    frequency:   13.8358310088
  - # 6
    frequency:   14.0703165126

- q-position: [    0.5765306,    0.1530612,    0.5765306 ]
  distance:    0.2245013
  band:
  - # 1
    frequency:    4.1694577442
  - # 2
    frequency:    5.2638429897
  - # 3
    frequency:   11.5139918967
  - # 4
    frequency:   11.6178051965
  - # 5
    frequency:   13.8373793966
  - # 6
    frequency:   14.0835802203

- q-position: [    0.5790816,    0.1581633,    0.5790816 ]
  distance:    0.2258329
  band:
  - # 1
    frequency:    4.1738892790
  - # 2
    frequency:    5.3196867369
  - # 3
    frequency:   11.4805979417
  - # 4
    frequency:   11.5826094414
  - # 5
    frequency:   13.8389798319
  - # 6
    frequency:   14.0968736649

- q-position: [    0.5816327,    0.1632653,    0.5816327 ]
  distance:    0.2271645
  band:
  - # 1
    frequency:    4.1782882414
  - # 2
    frequency:    5.3748755595
  - # 3
    frequency:   11.4479449366
  - # 4
    frequency:   11.5468208354
  - # 5
    frequency:   13.8406329642
  - # 6
    frequency:   14.1101808441

- q-position: [    0.5841837,    0.1683673,    0.5841837 ]
  distance:    0.2284961
  band:
  - # 1
    frequency:    4.1826428625
  - # 2
    frequency:    5.4292726502
  - # 3
    frequency:   11.4161673023
  - # 4
    frequency:   11.5104589939
  - # 5
    frequency:   13.8423395592
  - # 6
    frequency:   14.1234865175

- q-position: [    0.5867347,    0.1734694,    0.5867347 ]
  distance:    0.2298277
  band:
  - # 1
    frequency:    4.1869416524
  - # 2
    frequency:    5.4827467359
  - # 3
    frequency:   11.3853963846
  - # 4
    frequency:   11.4735421357
  - # 5
    frequency:   13.8441005035
  - # 6
    frequency:   14.1367761215

- q-position: [    0.5892857,    0.1785714,    0.5892857 ]
  distance:    0.2311593
  band:
  - # 1
    frequency:    4.1911734234
  - # 2
    frequency:    5.5351724363
  - # 3
    frequency:   11.3557596945
  - # 4
    frequency:   11.4360871805
  - # 5
    frequency:   13.8459168101
  - # 6
    frequency:   14.1500356910

- q-position: [    0.5918367,    0.1836735,    0.5918367 ]
  distance:    0.2324910
  band:
  - # 1
    frequency:    4.1953273114
  - # 2
    frequency:    5.5864306383
  - # 3
    frequency:   11.3273801347
  - # 4
    frequency:   11.3981098462
  - # 5
    frequency:   13.8477896227
  - # 6
    frequency:   14.1632517913

- q-position: [    0.5943878,    0.1887755,    0.5943878 ]
  distance:    0.2338226
  band:
  - # 1
    frequency:    4.1993927930
  - # 2
    frequency:    5.6364088825
  - # 3
    frequency:   11.3003752184
  - # 4
    frequency:   11.3596247467
  - # 5
    frequency:   13.8497202202
  - # 6
    frequency:   14.1764114579

- q-position: [    0.5969388,    0.1938776,    0.5969388 ]
  distance:    0.2351542
  band:
  - # 1
    frequency:    4.2033597003
  - # 2
    frequency:    5.6850017559
  - # 3
    frequency:   11.2748562903
  - # 4
    frequency:   11.3206454883
  - # 5
    frequency:   13.8517100200
  - # 6
    frequency:   14.1895021472

- q-position: [    0.5994898,    0.1989796,    0.5994898 ]