216  
1    

1    
  0.0100000000000000  -0.0000000000000443   0.0000000000000406
  -0.1338731729   -0.0000000104    0.0000000100
  -0.0042421647   -0.0010067233   -0.0010067899
  -0.0010899770   -0.0002179040   -0.0002193160
  -0.0012162095    0.0000044901   -0.0000014073
  -0.0010897829    0.0002176944    0.0002198232
  -0.0042421694    0.0010067305    0.0010067781
   0.0017072823    0.0010589702    0.0015980691
   0.0001730478   -0.0002678134    0.0001209684
   0.0000492326   -0.0001698617    0.0000353440
   0.0000493910   -0.0000358922    0.0001682325
   0.0001726061   -0.0001215005    0.0002680861
   0.0017072812   -0.0015981049   -0.0010589735
   0.0000069345    0.0002141318    0.0001280753
  -0.0000074899   -0.0001707603   -0.0000148129
   0.0000166876   -0.0000389259    0.0000383715
  -0.0000076381    0.0000152436    0.0001709011
   0.0000067708   -0.0001289547   -0.0002140120
  -0.0000123690   -0.0001201492    0.0001197529
  -0.0000202628    0.0000009019   -0.0000005560
  -0.0000198233    0.0000309828    0.0000155525
  -0.0000197237   -0.0000153862   -0.0000309800
  -0.0000203623    0.0000003386   -0.0000004681
  -0.0000197618    0.0000159801    0.0000309791
  -0.0000196985   -0.0000310171   -0.0000153980
   0.0000045664   -0.0002102687    0.0001284230
  -0.0000080299   -0.0000440348    0.0000445232
   0.0000045119   -0.0001291708    0.0002101367
  -0.0000071278   -0.0000148201    0.0001698457
   0.0000236711   -0.0000345940    0.0000347660
  -0.0000070079   -0.0001696165    0.0000148478
   0.0016846090   -0.0010556657    0.0015880516
   0.0016846484   -0.0015880655    0.0010556236
   0.0001764694   -0.0000460274    0.0002726008
   0.0000509418    0.0000366172    0.0001667073
   0.0000508104   -0.0001683814   -0.0000350615
   0.0001762783   -0.0002727211    0.0000460919
   0.0017073123    0.0015981269    0.0010589821
   0.0001724911    0.0001207035   -0.0002676295
   0.0000490089    0.0000369861   -0.0001692492
   0.0000488094    0.0001715020   -0.0000355022
   0.0001730521    0.0002678323   -0.0001204179
   0.0017073070   -0.0010589594   -0.0015980658
  -0.0000078079    0.0000430677    0.0000426728
   0.0000224128   -0.0000366979   -0.0000359983
   0.0000196830   -0.0000001958    0.0000000317
   0.0000222301    0.0000363422    0.0000368404
  -0.0000078220   -0.0000422445   -0.0000429334
   0.0000428824    0.0000000073   -0.0000000109
  -0.0000200452   -0.0000330009    0.0000144448
   0.0000196460   -0.0000021454   -0.0000023426
   0.0000196369    0.0000021224    0.0000018988
  -0.0000201084   -0.0000142348    0.0000332834
   0.0000224198    0.0000011819    0.0000315339
   0.0000223561   -0.0000319530   -0.0000015118
  -0.0000071622    0.0001693799   -0.0000148431
   0.0000238874    0.0000343072   -0.0000339465
  -0.0000072327    0.0000151167   -0.0001697774
   0.0000045734    0.0001292955   -0.0002103678
  -0.0000082263    0.0000450189   -0.0000445324
   0.0000047363    0.0002103432   -0.0001292517
   0.0001726236    0.0002670189    0.0001218832
   0.0001722454   -0.0001224816   -0.0002670903
   0.0001229683   -0.0000012519   -0.0000000702
   0.0001723038    0.0001215679    0.0002673455
   0.0001727731   -0.0002673012   -0.0001213231
   0.0001225366    0.0000000604    0.0000005417
  -0.0042305928    0.0009961132   -0.0009960827
   0.0002386085    0.0000005580   -0.0000038550
   0.0001204012    0.0000314988   -0.0000001070
  -0.0010867126   -0.0002178441    0.0002193181
   0.0001203327    0.0000000152   -0.0000348606
   0.0002389055    0.0000043871   -0.0000005595
   0.0000067736    0.0001291007    0.0002141738
  -0.0000076407   -0.0000148811   -0.0001708785
   0.0000165531    0.0000388387   -0.0000381858
  -0.0000074149    0.0001704607    0.0000149822
   0.0000069626   -0.0002140936   -0.0001292750
  -0.0000124519    0.0001197514   -0.0001195406
  -0.0000200805    0.0000146263   -0.0000332883
   0.0000196236   -0.0000027351   -0.0000018258
   0.0000194710    0.0000016486    0.0000026562
  -0.0000201128    0.0000335671   -0.0000141846
   0.0000223832    0.0000314695    0.0000017413
   0.0000223018   -0.0000021866   -0.0000311762
   0.0000181054    0.0000368649    0.0000364247
   0.0000221286   -0.0000002490   -0.0000000013
   0.0000180982   -0.0000369785   -0.0000364028
  -0.0000129045    0.0001227986    0.0001227110
   0.0000401476   -0.0000000066   -0.0000000027
  -0.0000128411   -0.0001231987   -0.0001225579
   0.0000507010    0.0001697190    0.0000349395
   0.0000510557   -0.0000355631   -0.0001674569
   0.0001764229    0.0000457642   -0.0002726113
   0.0016846492    0.0015880680   -0.0010556269
   0.0016846120    0.0010556553   -0.0015880371
   0.0001763082    0.0002727725   -0.0000462947
  -0.0010862765    0.0002177714   -0.0002196543
   0.0001204472   -0.0000360539   -0.0000001883
   0.0002386582   -0.0000004016    0.0000040417
  -0.0042306195   -0.0009961382    0.0009961099
   0.0002388433   -0.0000044014    0.0000003863
   0.0001201713    0.0000001573    0.0000369379
   0.0001743814    0.0000439325    0.0002712123
   0.0001225314   -0.0000013264    0.0000000759
   0.0001742981   -0.0000443082   -0.0002714138
   0.0001742044    0.0002714236    0.0000443060
   0.0001222527   -0.0000001674    0.0000004520
   0.0001742955   -0.0002714283   -0.0000445153
   0.0330428242    0.0233313890    0.0233313640
   0.0018187433   -0.0005287652   -0.0005294476
   0.0006802698   -0.0000200051   -0.0000181036
   0.0006802220    0.0000147959    0.0000190581
   0.0018188248    0.0005278762    0.0005302869
   0.0330428259   -0.0233313815   -0.0233313580
   0.0001569859   -0.0005271740    0.0002191103
   0.0000006186    0.0002191806   -0.0000318693
  -0.0000194132    0.0000472301   -0.0000473489
   0.0000007740    0.0000311073   -0.0002182210
   0.0001567776   -0.0002191503    0.0005272355
   0.0000068673    0.0002548795   -0.0002548850
   0.0000552546   -0.0000191173   -0.0000036841
  -0.0000279750    0.0000445072   -0.0000600473
  -0.0000278254    0.0000604244   -0.0000442903
   0.0000549249    0.0000043552    0.0000184894
  -0.0000337713    0.0000271020   -0.0001183262
  -0.0000345100    0.0001185590   -0.0000275227
   0.0000543615    0.0000133073   -0.0000046608
   0.0000005454    0.0000294272   -0.0000291978
   0.0000540581    0.0000051589   -0.0000137232
   0.0000542332   -0.0000058120    0.0000137576
   0.0000002047   -0.0000293887    0.0000292852
   0.0000544058   -0.0000143925    0.0000048459
   0.0001501484    0.0005202092    0.0002164247
   0.0001499866   -0.0002165370   -0.0005210157
   0.0000163205    0.0000283196   -0.0001114735
   0.0000015282   -0.0000314757   -0.0002205014
   0.0000014501    0.0002214358    0.0000319499
   0.0000161032    0.0001122154   -0.0000289821
   0.0327428238   -0.0227368259    0.0227368679
  -0.0003284632    0.0002431751   -0.0003859764
  -0.0001248096    0.0001236707   -0.0001080570
   0.0006816745   -0.0000208224    0.0000198127
  -0.0001251028    0.0001079734   -0.0001224594
  -0.0003284886    0.0003856919   -0.0002429579
   0.0001570460    0.0002192497   -0.0005271616
   0.0000005174   -0.0000312488    0.0002186904
  -0.0000193223   -0.0000474417    0.0000472522
   0.0000004833   -0.0002196706    0.0000314422
   0.0001570909    0.0005263810   -0.0002190653
   0.0000068402   -0.0002548740    0.0002548948
  -0.0000002071   -0.0000324067   -0.0000322436
   0.0000039704    0.0000030585    0.0000024986
   0.0000038787   -0.0000030135   -0.0000030598
  -0.0000000576    0.0000326606    0.0000323156
  -0.0000035640   -0.0000155733   -0.0000153007
  -0.0000037026    0.0000155045    0.0000155405
  -0.0000274738   -0.0000480379   -0.0000600691
   0.0000046968   -0.0000046555    0.0000040800
  -0.0000273731    0.0000606763    0.0000483276
  -0.0000343252   -0.0000263600   -0.0001163460
  -0.0000033166    0.0000166337   -0.0000164130
  -0.0000342134    0.0001166059    0.0000265091
   0.0000015813   -0.0002218853   -0.0000318256
   0.0000018846    0.0000317110    0.0002208257
   0.0000165523   -0.0000285741    0.0001114382
   0.0001502515    0.0002166230    0.0005208979
   0.0001501184   -0.0005208785   -0.0002164087
   0.0000163236   -0.0001115218    0.0000288832
   0.0018130881    0.0005271968   -0.0005284102
  -0.0001621615   -0.0000121926   -0.0000191806
  -0.0001624989    0.0000163091    0.0000190229
   0.0018127717   -0.0005280463    0.0005297199
  -0.0001627036   -0.0000198070   -0.0000164303
  -0.0001620586    0.0000201828    0.0000146241
  -0.0003338232   -0.0002511804   -0.0003799962
  -0.0001630202    0.0000162761   -0.0000195448
  -0.0001253774    0.0001242493    0.0001072069
  -0.0001257989   -0.0001071218   -0.0001227464
  -0.0001630693    0.0000204563   -0.0000164536
  -0.0003337824    0.0003797534    0.0002509900
   0.0000550787   -0.0000050518   -0.0000185174
  -0.0000278274   -0.0000602410    0.0000443200
  -0.0000278884   -0.0000439467    0.0000602017
   0.0000552941    0.0000182504    0.0000039899
  -0.0000340690   -0.0001181208    0.0000272189
  -0.0000341781   -0.0000271929    0.0001181556
  -0.0000273572   -0.0000602726   -0.0000483992
   0.0000047180    0.0000048093   -0.0000047151
  -0.0000274159    0.0000486814    0.0000603545
  -0.0000341930   -0.0001161526   -0.0000267364
  -0.0000032228   -0.0000168268    0.0000165969
  -0.0000339357    0.0000267081    0.0001162236
  -0.0000156481   -0.0000482766   -0.0000482162
  -0.0000155749    0.0000482700    0.0000481544
  -0.0000829234    0.0000059427    0.0000052457
   0.0000071804   -0.0002545135   -0.0002545530
   0.0000072014    0.0002545106    0.0002545294
  -0.0000828189   -0.0000054010   -0.0000054107
   0.0006817365    0.0000149267   -0.0000181680
  -0.0001242680   -0.0001223370    0.0001068674
  -0.0003284790   -0.0002431117    0.0003861173
   0.0327428239    0.0227368138   -0.0227368622
  -0.0003285258   -0.0003860864    0.0002429832
  -0.0001247848   -0.0001073091    0.0001223532
  -0.0001252740   -0.0001223659   -0.0001074811
  -0.0001626253   -0.0000122040    0.0000196262
  -0.0003338098    0.0002512050    0.0003800680
  -0.0003338020   -0.0003800544   -0.0002510642
  -0.0001624181   -0.0000203787    0.0000143311
  -0.0001255150    0.0001080789    0.0001227348
   0.0000173247   -0.0000288385   -0.0001095925
   0.0000170726    0.0000289214    0.0001094115
  -0.0000840572   -0.0000042150    0.0000040014
   0.0000170313   -0.0001095314   -0.0000289472
   0.0000171602    0.0001101453    0.0000293921
  -0.0000840945    0.0000047564   -0.0000043623
