phonopy:
  version: "2.19.1"
  frequency_unit_conversion_factor: 15.633304
  symmetry_tolerance: 1.00000e-05

space_group:
  type: "Fd-3m"
  number: 227
  Hall_symbol: "F 4d 2 3 -1d"

supercell_matrix:
- [  -3,   3,   3 ]
- [   3,  -3,   3 ]
- [   3,   3,  -3 ]

primitive_cell:
  lattice:
  - [    -0.000000000001000,     2.709252719577000,     2.709252719609999 ] # a
  - [     2.709252757352000,    -0.000000000010000,     2.709252719619000 ] # b
  - [     2.709252757329000,     2.709252719563000,     0.000000000013000 ] # c
  points:
  - symbol: Si # 1
    coordinates: [  0.999999999986000,  0.999999999993000,  0.000000000018000 ]
    mass: 28.085000
  - symbol: Si # 2
    coordinates: [  0.250000000013998,  0.250000000007000,  0.249999999982001 ]
    mass: 28.085000
  reciprocal_lattice: # without 2pi
  - [    -0.184552732721232,     0.184552735292945,     0.184552735292264 ] # a*
  - [     0.184552732719734,    -0.184552735293217,     0.184552735291038 ] # b*
  - [     0.184552732722867,     0.184552735294852,    -0.184552735292536 ] # c*

unit_cell:
  lattice:
  - [    -0.000000000001000,     2.709252719577000,     2.709252719610000 ] # a
  - [     2.709252757352000,    -0.000000000010000,     2.709252719619000 ] # b
  - [     2.709252757329000,     2.709252719563000,     0.000000000013000 ] # c
  points:
  - symbol: Si # 1
    coordinates: [ -0.000000000014000, -0.000000000007000,  0.000000000018000 ]
    mass: 28.085000
    reduced_to: 1
  - symbol: Si # 2
    coordinates: [  0.250000000013998,  0.250000000007000,  0.249999999982000 ]
    mass: 28.085000
    reduced_to: 2

supercell:
  lattice:
  - [    16.255516544045999,    -0.000000000071999,     0.000000000066003 ] # a
  - [    -0.000000000071999,    16.255516317449999,     0.000000000011997 ] # b
  - [     0.000000000066000,     0.000000000012001,    16.255516317647999 ] # c
  points:
  - symbol: Si # 1
    coordinates: [  0.000000000001833,  0.000000000000667,  0.999999999996500 ]
    mass: 28.085000
    reduced_to: 1
  - symbol: Si # 2
    coordinates: [  0.000000000001833,  0.166666666667333,  0.166666666663167 ]
    mass: 28.085000
    reduced_to: 1
  - symbol: Si # 3
    coordinates: [  0.000000000001833,  0.333333333334000,  0.333333333329833 ]
    mass: 28.085000
    reduced_to: 1
  - symbol: Si # 4
    coordinates: [  0.000000000001833,  0.500000000000667,  0.499999999996500 ]
    mass: 28.085000
    reduced_to: 1
  - symbol: Si # 5
    coordinates: [  0.000000000001833,  0.666666666667333,  0.666666666663167 ]
    mass: 28.085000
    reduced_to: 1
  - symbol: Si # 6
    coordinates: [  0.000000000001833,  0.833333333334000,  0.833333333329833 ]
    mass: 28.085000
    reduced_to: 1
  - symbol: Si # 7
    coordinates: [  0.166666666668500,  0.000000000000667,  0.166666666663167 ]
    mass: 28.085000
    reduced_to: 1
  - symbol: Si # 8
    coordinates: [  0.166666666668500,  0.166666666667333,  0.333333333329833 ]
    mass: 28.085000
    reduced_to: 1
  - symbol: Si # 9
    coordinates: [  0.166666666668500,  0.333333333334000,  0.499999999996500 ]
    mass: 28.085000
    reduced_to: 1
  - symbol: Si # 10
    coordinates: [  0.166666666668500,  0.500000000000667,  0.666666666663167 ]
    mass: 28.085000
    reduced_to: 1
  - symbol: Si # 11
    coordinates: [  0.166666666668500,  0.666666666667333,  0.833333333329833 ]
    mass: 28.085000
    reduced_to: 1
  - symbol: Si # 12
    coordinates: [  0.166666666668500,  0.833333333334000,  0.999999999996500 ]
    mass: 28.085000
    reduced_to: 1
  - symbol: Si # 13
    coordinates: [  0.333333333335167,  0.000000000000667,  0.333333333329833 ]
    mass: 28.085000
    reduced_to: 1
  - symbol: Si # 14
    coordinates: [  0.333333333335167,  0.166666666667333,  0.499999999996500 ]
    mass: 28.085000
    reduced_to: 1
  - symbol: Si # 15
    coordinates: [  0.333333333335167,  0.333333333334000,  0.666666666663167 ]
    mass: 28.085000
    reduced_to: 1
  - symbol: Si # 16
    coordinates: [  0.333333333335167,  0.500000000000667,  0.833333333329833 ]
    mass: 28.085000
    reduced_to: 1
  - symbol: Si # 17
    coordinates: [  0.333333333335167,  0.666666666667333,  0.999999999996500 ]
    mass: 28.085000
    reduced_to: 1
  - symbol: Si # 18
    coordinates: [  0.333333333335167,  0.833333333334000,  0.166666666663167 ]
    mass: 28.085000
    reduced_to: 1
  - symbol: Si # 19
    coordinates: [  0.500000000001833,  0.000000000000667,  0.499999999996500 ]
    mass: 28.085000
    reduced_to: 1
  - symbol: Si # 20
    coordinates: [  0.500000000001833,  0.166666666667333,  0.666666666663167 ]
    mass: 28.085000
    reduced_to: 1
  - symbol: Si # 21
    coordinates: [  0.500000000001833,  0.333333333334000,  0.833333333329833 ]
    mass: 28.085000
    reduced_to: 1
  - symbol: Si # 22
    coordinates: [  0.500000000001833,  0.500000000000667,  0.999999999996500 ]
    mass: 28.085000
    reduced_to: 1
  - symbol: Si # 23
    coordinates: [  0.500000000001833,  0.666666666667333,  0.166666666663166 ]
    mass: 28.085000
    reduced_to: 1
  - symbol: Si # 24
    coordinates: [  0.500000000001833,  0.833333333334000,  0.333333333329833 ]
    mass: 28.085000
    reduced_to: 1
  - symbol: Si # 25
    coordinates: [  0.666666666668500,  0.000000000000667,  0.666666666663167 ]
    mass: 28.085000
    reduced_to: 1
  - symbol: Si # 26
    coordinates: [  0.666666666668500,  0.166666666667333,  0.833333333329833 ]
    mass: 28.085000
    reduced_to: 1
  - symbol: Si # 27
    coordinates: [  0.666666666668500,  0.333333333334000,  0.999999999996500 ]
    mass: 28.085000
    reduced_to: 1
  - symbol: Si # 28
    coordinates: [  0.666666666668500,  0.500000000000667,  0.166666666663167 ]
    mass: 28.085000
    reduced_to: 1
  - symbol: Si # 29
    coordinates: [  0.666666666668500,  0.666666666667333,  0.333333333329833 ]
    mass: 28.085000
    reduced_to: 1
  - symbol: Si # 30
    coordinates: [  0.666666666668500,  0.833333333334000,  0.499999999996500 ]
    mass: 28.085000
    reduced_to: 1
  - symbol: Si # 31
    coordinates: [  0.833333333335167,  0.000000000000667,  0.833333333329833 ]
    mass: 28.085000
    reduced_to: 1
  - symbol: Si # 32
    coordinates: [  0.833333333335167,  0.166666666667333,  0.999999999996500 ]
    mass: 28.085000
    reduced_to: 1
  - symbol: Si # 33
    coordinates: [  0.833333333335167,  0.333333333334000,  0.166666666663167 ]
    mass: 28.085000
    reduced_to: 1
  - symbol: Si # 34
    coordinates: [  0.833333333335167,  0.500000000000667,  0.333333333329833 ]
    mass: 28.085000
    reduced_to: 1
  - symbol: Si # 35
    coordinates: [  0.833333333335167,  0.666666666667333,  0.499999999996500 ]
    mass: 28.085000
    reduced_to: 1
  - symbol: Si # 36
    coordinates: [  0.833333333335167,  0.833333333334000,  0.666666666663167 ]
    mass: 28.085000
    reduced_to: 1
  - symbol: Si # 37
    coordinates: [  0.166666666668500,  0.166666666667333,  0.999999999996500 ]
    mass: 28.085000
    reduced_to: 1
  - symbol: Si # 38
    coordinates: [  0.166666666668500,  0.333333333334000,  0.166666666663167 ]
    mass: 28.085000
    reduced_to: 1
  - symbol: Si # 39
    coordinates: [  0.166666666668500,  0.500000000000667,  0.333333333329833 ]
    mass: 28.085000
    reduced_to: 1
  - symbol: Si # 40
    coordinates: [  0.166666666668500,  0.666666666667333,  0.499999999996500 ]
    mass: 28.085000
    reduced_to: 1
  - symbol: Si # 41
    coordinates: [  0.166666666668500,  0.833333333334000,  0.666666666663167 ]
    mass: 28.085000
    reduced_to: 1
  - symbol: Si # 42
    coordinates: [  0.166666666668500,  0.000000000000667,  0.833333333329833 ]
    mass: 28.085000
    reduced_to: 1
  - symbol: Si # 43
    coordinates: [  0.333333333335167,  0.166666666667333,  0.166666666663167 ]
    mass: 28.085000
    reduced_to: 1
  - symbol: Si # 44
    coordinates: [  0.333333333335167,  0.333333333334000,  0.333333333329833 ]
    mass: 28.085000
    reduced_to: 1
  - symbol: Si # 45
    coordinates: [  0.333333333335167,  0.500000000000667,  0.499999999996500 ]
    mass: 28.085000
    reduced_to: 1
  - symbol: Si # 46
    coordinates: [  0.333333333335167,  0.666666666667333,  0.666666666663167 ]
    mass: 28.085000
    reduced_to: 1
  - symbol: Si # 47
    coordinates: [  0.333333333335167,  0.833333333334000,  0.833333333329833 ]
    mass: 28.085000
    reduced_to: 1
  - symbol: Si # 48
    coordinates: [  0.333333333335167,  0.000000000000667,  0.999999999996500 ]
    mass: 28.085000
    reduced_to: 1
  - symbol: Si # 49
    coordinates: [  0.500000000001833,  0.166666666667333,  0.333333333329833 ]
    mass: 28.085000
    reduced_to: 1
  - symbol: Si # 50
    coordinates: [  0.500000000001833,  0.333333333334000,  0.499999999996500 ]
    mass: 28.085000
    reduced_to: 1
  - symbol: Si # 51
    coordinates: [  0.500000000001833,  0.500000000000667,  0.666666666663167 ]
    mass: 28.085000
    reduced_to: 1
  - symbol: Si # 52
    coordinates: [  0.500000000001833,  0.666666666667333,  0.833333333329833 ]
    mass: 28.085000
    reduced_to: 1
  - symbol: Si # 53
    coordinates: [  0.500000000001833,  0.833333333334000,  0.999999999996500 ]
    mass: 28.085000
    reduced_to: 1
  - symbol: Si # 54
    coordinates: [  0.500000000001833,  0.000000000000667,  0.166666666663167 ]
    mass: 28.085000
    reduced_to: 1
  - symbol: Si # 55
    coordinates: [  0.666666666668500,  0.166666666667333,  0.499999999996500 ]
    mass: 28.085000
    reduced_to: 1
  - symbol: Si # 56
    coordinates: [  0.666666666668500,  0.333333333334000,  0.666666666663167 ]
    mass: 28.085000
    reduced_to: 1
  - symbol: Si # 57
    coordinates: [  0.666666666668500,  0.500000000000667,  0.833333333329833 ]
    mass: 28.085000
    reduced_to: 1
  - symbol: Si # 58
    coordinates: [  0.666666666668500,  0.666666666667333,  0.999999999996500 ]
    mass: 28.085000
    reduced_to: 1
  - symbol: Si # 59
    coordinates: [  0.666666666668500,  0.833333333334000,  0.166666666663166 ]
    mass: 28.085000
    reduced_to: 1
  - symbol: Si # 60
    coordinates: [  0.666666666668500,  0.000000000000667,  0.333333333329833 ]
    mass: 28.085000
    reduced_to: 1
  - symbol: Si # 61
    coordinates: [  0.833333333335167,  0.166666666667333,  0.666666666663167 ]
    mass: 28.085000
    reduced_to: 1
  - symbol: Si # 62
    coordinates: [  0.833333333335167,  0.333333333334000,  0.833333333329833 ]
    mass: 28.085000
    reduced_to: 1
  - symbol: Si # 63
    coordinates: [  0.833333333335167,  0.500000000000667,  0.999999999996500 ]
    mass: 28.085000
    reduced_to: 1
  - symbol: Si # 64
    coordinates: [  0.833333333335167,  0.666666666667333,  0.166666666663167 ]
    mass: 28.085000
    reduced_to: 1
  - symbol: Si # 65
    coordinates: [  0.833333333335167,  0.833333333334000,  0.333333333329833 ]
    mass: 28.085000
    reduced_to: 1
  - symbol: Si # 66
    coordinates: [  0.833333333335167,  0.000000000000667,  0.499999999996500 ]
    mass: 28.085000
    reduced_to: 1
  - symbol: Si # 67
    coordinates: [  0.000000000001833,  0.166666666667333,  0.833333333329833 ]
    mass: 28.085000
    reduced_to: 1
  - symbol: Si # 68
    coordinates: [  0.000000000001833,  0.333333333334000,  0.999999999996500 ]
    mass: 28.085000
    reduced_to: 1
  - symbol: Si # 69
    coordinates: [  0.000000000001833,  0.500000000000667,  0.166666666663167 ]
    mass: 28.085000
    reduced_to: 1
  - symbol: Si # 70
    coordinates: [  0.000000000001833,  0.666666666667333,  0.333333333329833 ]
    mass: 28.085000
    reduced_to: 1
  - symbol: Si # 71
    coordinates: [  0.000000000001833,  0.833333333334000,  0.499999999996500 ]
    mass: 28.085000
    reduced_to: 1
  - symbol: Si # 72
    coordinates: [  0.000000000001833,  0.000000000000667,  0.666666666663167 ]
    mass: 28.085000
    reduced_to: 1
  - symbol: Si # 73
    coordinates: [  0.333333333335167,  0.333333333334000,  0.999999999996500 ]
    mass: 28.085000
    reduced_to: 1
  - symbol: Si # 74
    coordinates: [  0.333333333335167,  0.500000000000667,  0.166666666663167 ]
    mass: 28.085000
    reduced_to: 1
  - symbol: Si # 75
    coordinates: [  0.333333333335167,  0.666666666667333,  0.333333333329833 ]
    mass: 28.085000
    reduced_to: 1
  - symbol: Si # 76
    coordinates: [  0.333333333335167,  0.833333333334000,  0.499999999996500 ]
    mass: 28.085000
    reduced_to: 1
  - symbol: Si # 77
    coordinates: [  0.333333333335167,  0.000000000000667,  0.666666666663167 ]
    mass: 28.085000
    reduced_to: 1
  - symbol: Si # 78
    coordinates: [  0.333333333335167,  0.166666666667333,  0.833333333329833 ]
    mass: 28.085000
    reduced_to: 1
  - symbol: Si # 79
    coordinates: [  0.500000000001833,  0.333333333334000,  0.166666666663167 ]
    mass: 28.085000
    reduced_to: 1
  - symbol: Si # 80
    coordinates: [  0.500000000001833,  0.500000000000667,  0.333333333329833 ]
    mass: 28.085000
    reduced_to: 1
  - symbol: Si # 81
    coordinates: [  0.500000000001833,  0.666666666667333,  0.499999999996500 ]
    mass: 28.085000
    reduced_to: 1
  - symbol: Si # 82
    coordinates: [  0.500000000001833,  0.833333333334000,  0.666666666663167 ]
    mass: 28.085000
    reduced_to: 1
  - symbol: Si # 83
    coordinates: [  0.500000000001833,  0.000000000000667,  0.833333333329833 ]
    mass: 28.085000
    reduced_to: 1
  - symbol: Si # 84
    coordinates: [  0.500000000001833,  0.166666666667333,  0.999999999996500 ]
    mass: 28.085000
    reduced_to: 1
  - symbol: Si # 85
    coordinates: [  0.666666666668500,  0.333333333334000,  0.333333333329833 ]
    mass: 28.085000
    reduced_to: 1
  - symbol: Si # 86
    coordinates: [  0.666666666668500,  0.500000000000667,  0.499999999996500 ]
    mass: 28.085000
    reduced_to: 1
  - symbol: Si # 87
    coordinates: [  0.666666666668500,  0.666666666667333,  0.666666666663167 ]
    mass: 28.085000
    reduced_to: 1
  - symbol: Si # 88
    coordinates: [  0.666666666668500,  0.833333333334000,  0.833333333329833 ]
    mass: 28.085000
    reduced_to: 1
  - symbol: Si # 89
    coordinates: [  0.666666666668500,  0.000000000000667,  0.999999999996500 ]
    mass: 28.085000
    reduced_to: 1
  - symbol: Si # 90
    coordinates: [  0.666666666668500,  0.166666666667333,  0.166666666663167 ]
    mass: 28.085000
    reduced_to: 1
  - symbol: Si # 91
    coordinates: [  0.833333333335167,  0.333333333334000,  0.499999999996500 ]
    mass: 28.085000
    reduced_to: 1
  - symbol: Si # 92
    coordinates: [  0.833333333335167,  0.500000000000667,  0.666666666663167 ]
    mass: 28.085000
    reduced_to: 1
  - symbol: Si # 93
    coordinates: [  0.833333333335167,  0.666666666667333,  0.833333333329833 ]
    mass: 28.085000
    reduced_to: 1
  - symbol: Si # 94
    coordinates: [  0.833333333335167,  0.833333333334000,  0.999999999996500 ]
    mass: 28.085000
    reduced_to: 1
  - symbol: Si # 95
    coordinates: [  0.833333333335167,  0.000000000000667,  0.166666666663166 ]
    mass: 28.085000
    reduced_to: 1
  - symbol: Si # 96
    coordinates: [  0.833333333335167,  0.166666666667333,  0.333333333329833 ]
    mass: 28.085000
    reduced_to: 1
  - symbol: Si # 97
    coordinates: [  0.000000000001833,  0.333333333334000,  0.666666666663167 ]
    mass: 28.085000
    reduced_to: 1
  - symbol: Si # 98
    coordinates: [  0.000000000001833,  0.500000000000667,  0.833333333329833 ]
    mass: 28.085000
    reduced_to: 1
  - symbol: Si # 99
    coordinates: [  0.000000000001833,  0.666666666667333,  0.999999999996500 ]
    mass: 28.085000
    reduced_to: 1
  - symbol: Si # 100
    coordinates: [  0.000000000001833,  0.833333333334000,  0.166666666663167 ]
    mass: 28.085000
    reduced_to: 1
  - symbol: Si # 101
    coordinates: [  0.000000000001833,  0.000000000000667,  0.333333333329833 ]
    mass: 28.085000
    reduced_to: 1
  - symbol: Si # 102
    coordinates: [  0.000000000001833,  0.166666666667333,  0.499999999996500 ]
    mass: 28.085000
    reduced_to: 1
  - symbol: Si # 103
    coordinates: [  0.166666666668500,  0.333333333334000,  0.833333333329833 ]
    mass: 28.085000
    reduced_to: 1
  - symbol: Si # 104
    coordinates: [  0.166666666668500,  0.500000000000667,  0.999999999996500 ]
    mass: 28.085000
    reduced_to: 1
  - symbol: Si # 105
    coordinates: [  0.166666666668500,  0.666666666667333,  0.166666666663167 ]
    mass: 28.085000
    reduced_to: 1
  - symbol: Si # 106
    coordinates: [  0.166666666668500,  0.833333333334000,  0.333333333329833 ]
    mass: 28.085000
    reduced_to: 1
  - symbol: Si # 107
    coordinates: [  0.166666666668500,  0.000000000000667,  0.499999999996500 ]
    mass: 28.085000
    reduced_to: 1
  - symbol: Si # 108
    coordinates: [  0.166666666668500,  0.166666666667333,  0.666666666663167 ]
    mass: 28.085000
    reduced_to: 1
  - symbol: Si # 109
    coordinates: [  0.083333333331500,  0.083333333332666,  0.083333333336833 ]
    mass: 28.085000
    reduced_to: 109
  - symbol: Si # 110
    coordinates: [  0.083333333331500,  0.249999999999333,  0.250000000003500 ]
    mass: 28.085000
    reduced_to: 109
  - symbol: Si # 111
    coordinates: [  0.083333333331500,  0.416666666666000,  0.416666666670166 ]
    mass: 28.085000
    reduced_to: 109
  - symbol: Si # 112
    coordinates: [  0.083333333331500,  0.583333333332666,  0.583333333336833 ]
    mass: 28.085000
    reduced_to: 109
  - symbol: Si # 113
    coordinates: [  0.083333333331500,  0.749999999999333,  0.750000000003500 ]
    mass: 28.085000
    reduced_to: 109
  - symbol: Si # 114
    coordinates: [  0.083333333331500,  0.916666666666000,  0.916666666670166 ]
    mass: 28.085000
    reduced_to: 109
  - symbol: Si # 115
    coordinates: [  0.249999999998167,  0.083333333332666,  0.250000000003500 ]
    mass: 28.085000
    reduced_to: 109
  - symbol: Si # 116
    coordinates: [  0.249999999998167,  0.249999999999333,  0.416666666670166 ]
    mass: 28.085000
    reduced_to: 109
  - symbol: Si # 117
    coordinates: [  0.249999999998167,  0.416666666666000,  0.583333333336833 ]
    mass: 28.085000
    reduced_to: 109
  - symbol: Si # 118
    coordinates: [  0.249999999998167,  0.583333333332666,  0.750000000003500 ]
    mass: 28.085000
    reduced_to: 109
  - symbol: Si # 119
    coordinates: [  0.249999999998167,  0.749999999999333,  0.916666666670166 ]
    mass: 28.085000
    reduced_to: 109
  - symbol: Si # 120
    coordinates: [  0.249999999998167,  0.916666666666000,  0.083333333336833 ]
    mass: 28.085000
    reduced_to: 109
  - symbol: Si # 121
    coordinates: [  0.416666666664833,  0.083333333332666,  0.416666666670166 ]
    mass: 28.085000
    reduced_to: 109
  - symbol: Si # 122
    coordinates: [  0.416666666664833,  0.249999999999333,  0.583333333336833 ]
    mass: 28.085000
    reduced_to: 109
  - symbol: Si # 123
    coordinates: [  0.416666666664833,  0.416666666666000,  0.750000000003500 ]
    mass: 28.085000
    reduced_to: 109
  - symbol: Si # 124
    coordinates: [  0.416666666664833,  0.583333333332666,  0.916666666670166 ]
    mass: 28.085000
    reduced_to: 109
  - symbol: Si # 125
    coordinates: [  0.416666666664833,  0.749999999999333,  0.083333333336833 ]
    mass: 28.085000
    reduced_to: 109
  - symbol: Si # 126
    coordinates: [  0.416666666664833,  0.916666666666000,  0.250000000003500 ]
    mass: 28.085000
    reduced_to: 109
  - symbol: Si # 127
    coordinates: [  0.583333333331500,  0.083333333332666,  0.583333333336833 ]
    mass: 28.085000
    reduced_to: 109
  - symbol: Si # 128
    coordinates: [  0.583333333331500,  0.249999999999333,  0.750000000003500 ]
    mass: 28.085000
    reduced_to: 109
  - symbol: Si # 129
    coordinates: [  0.583333333331500,  0.416666666666000,  0.916666666670166 ]
    mass: 28.085000
    reduced_to: 109
  - symbol: Si # 130
    coordinates: [  0.583333333331500,  0.583333333332666,  0.083333333336833 ]
    mass: 28.085000
    reduced_to: 109
  - symbol: Si # 131
    coordinates: [  0.583333333331500,  0.749999999999333,  0.250000000003500 ]
    mass: 28.085000
    reduced_to: 109
  - symbol: Si # 132
    coordinates: [  0.583333333331500,  0.916666666666000,  0.416666666670166 ]
    mass: 28.085000
    reduced_to: 109
  - symbol: Si # 133
    coordinates: [  0.749999999998167,  0.083333333332666,  0.750000000003500 ]
    mass: 28.085000
    reduced_to: 109
  - symbol: Si # 134
    coordinates: [  0.749999999998167,  0.249999999999333,  0.916666666670166 ]
    mass: 28.085000
    reduced_to: 109
  - symbol: Si # 135
    coordinates: [  0.749999999998167,  0.416666666666000,  0.083333333336833 ]
    mass: 28.085000
    reduced_to: 109
  - symbol: Si # 136
    coordinates: [  0.749999999998167,  0.583333333332666,  0.250000000003499 ]
    mass: 28.085000
    reduced_to: 109
  - symbol: Si # 137
    coordinates: [  0.749999999998167,  0.749999999999333,  0.416666666670166 ]
    mass: 28.085000
    reduced_to: 109
  - symbol: Si # 138
    coordinates: [  0.749999999998167,  0.916666666666000,  0.583333333336833 ]
    mass: 28.085000
    reduced_to: 109
  - symbol: Si # 139
    coordinates: [  0.916666666664833,  0.083333333332666,  0.916666666670166 ]
    mass: 28.085000
    reduced_to: 109
  - symbol: Si # 140
    coordinates: [  0.916666666664833,  0.249999999999333,  0.083333333336833 ]
    mass: 28.085000
    reduced_to: 109
  - symbol: Si # 141
    coordinates: [  0.916666666664833,  0.416666666666000,  0.250000000003500 ]
    mass: 28.085000
    reduced_to: 109
  - symbol: Si # 142
    coordinates: [  0.916666666664833,  0.583333333332666,  0.416666666670166 ]
    mass: 28.085000
    reduced_to: 109
  - symbol: Si # 143
    coordinates: [  0.916666666664833,  0.749999999999333,  0.583333333336833 ]
    mass: 28.085000
    reduced_to: 109
  - symbol: Si # 144
    coordinates: [  0.916666666664833,  0.916666666666000,  0.750000000003500 ]
    mass: 28.085000
    reduced_to: 109
  - symbol: Si # 145
    coordinates: [  0.249999999998167,  0.249999999999333,  0.083333333336833 ]
    mass: 28.085000
    reduced_to: 109
  - symbol: Si # 146
    coordinates: [  0.249999999998167,  0.416666666666000,  0.250000000003500 ]
    mass: 28.085000
    reduced_to: 109
  - symbol: Si # 147
    coordinates: [  0.249999999998167,  0.583333333332666,  0.416666666670166 ]
    mass: 28.085000
    reduced_to: 109
  - symbol: Si # 148
    coordinates: [  0.249999999998167,  0.749999999999333,  0.583333333336833 ]
    mass: 28.085000
    reduced_to: 109
  - symbol: Si # 149
    coordinates: [  0.249999999998167,  0.916666666666000,  0.750000000003500 ]
    mass: 28.085000
    reduced_to: 109
  - symbol: Si # 150
    coordinates: [  0.249999999998167,  0.083333333332666,  0.916666666670166 ]
    mass: 28.085000
    reduced_to: 109
  - symbol: Si # 151
    coordinates: [  0.416666666664833,  0.249999999999333,  0.250000000003500 ]
    mass: 28.085000
    reduced_to: 109
  - symbol: Si # 152
    coordinates: [  0.416666666664833,  0.416666666666000,  0.416666666670166 ]
    mass: 28.085000
    reduced_to: 109
  - symbol: Si # 153
    coordinates: [  0.416666666664833,  0.583333333332666,  0.583333333336833 ]
    mass: 28.085000
    reduced_to: 109
  - symbol: Si # 154
    coordinates: [  0.416666666664833,  0.749999999999333,  0.750000000003500 ]
    mass: 28.085000
    reduced_to: 109
  - symbol: Si # 155
    coordinates: [  0.416666666664833,  0.916666666666000,  0.916666666670166 ]
    mass: 28.085000
    reduced_to: 109
  - symbol: Si # 156
    coordinates: [  0.416666666664833,  0.083333333332666,  0.083333333336833 ]
    mass: 28.085000
    reduced_to: 109
  - symbol: Si # 157
    coordinates: [  0.583333333331500,  0.249999999999333,  0.416666666670166 ]
    mass: 28.085000
    reduced_to: 109
  - symbol: Si # 158
    coordinates: [  0.583333333331500,  0.416666666666000,  0.583333333336833 ]
    mass: 28.085000
    reduced_to: 109
  - symbol: Si # 159
    coordinates: [  0.583333333331500,  0.583333333332666,  0.750000000003500 ]
    mass: 28.085000
    reduced_to: 109
  - symbol: Si # 160
    coordinates: [  0.583333333331500,  0.749999999999333,  0.916666666670166 ]
    mass: 28.085000
    reduced_to: 109
  - symbol: Si # 161
    coordinates: [  0.583333333331500,  0.916666666666000,  0.083333333336833 ]
    mass: 28.085000
    reduced_to: 109
  - symbol: Si # 162
    coordinates: [  0.583333333331500,  0.083333333332666,  0.250000000003500 ]
    mass: 28.085000
    reduced_to: 109
  - symbol: Si # 163
    coordinates: [  0.749999999998167,  0.249999999999333,  0.583333333336833 ]
    mass: 28.085000
    reduced_to: 109
  - symbol: Si # 164
    coordinates: [  0.749999999998167,  0.416666666666000,  0.750000000003500 ]
    mass: 28.085000
    reduced_to: 109
  - symbol: Si # 165
    coordinates: [  0.749999999998167,  0.583333333332666,  0.916666666670166 ]
    mass: 28.085000
    reduced_to: 109
  - symbol: Si # 166
    coordinates: [  0.749999999998167,  0.749999999999333,  0.083333333336833 ]
    mass: 28.085000
    reduced_to: 109
  - symbol: Si # 167
    coordinates: [  0.749999999998167,  0.916666666666000,  0.250000000003500 ]
    mass: 28.085000
    reduced_to: 109
  - symbol: Si # 168
    coordinates: [  0.749999999998167,  0.083333333332666,  0.416666666670166 ]
    mass: 28.085000
    reduced_to: 109
  - symbol: Si # 169
    coordinates: [  0.916666666664833,  0.249999999999333,  0.750000000003500 ]
    mass: 28.085000
    reduced_to: 109
  - symbol: Si # 170
    coordinates: [  0.916666666664833,  0.416666666666000,  0.916666666670166 ]
    mass: 28.085000
    reduced_to: 109
  - symbol: Si # 171
    coordinates: [  0.916666666664833,  0.583333333332666,  0.083333333336833 ]
    mass: 28.085000
    reduced_to: 109
  - symbol: Si # 172
    coordinates: [  0.916666666664833,  0.749999999999333,  0.250000000003499 ]
    mass: 28.085000
    reduced_to: 109
  - symbol: Si # 173
    coordinates: [  0.916666666664833,  0.916666666666000,  0.416666666670166 ]
    mass: 28.085000
    reduced_to: 109
  - symbol: Si # 174
    coordinates: [  0.916666666664833,  0.083333333332666,  0.583333333336833 ]
    mass: 28.085000
    reduced_to: 109
  - symbol: Si # 175
    coordinates: [  0.083333333331500,  0.249999999999333,  0.916666666670166 ]
    mass: 28.085000
    reduced_to: 109
  - symbol: Si # 176
    coordinates: [  0.083333333331500,  0.416666666666000,  0.083333333336833 ]
    mass: 28.085000
    reduced_to: 109
  - symbol: Si # 177
    coordinates: [  0.083333333331500,  0.583333333332666,  0.250000000003500 ]
    mass: 28.085000
    reduced_to: 109
  - symbol: Si # 178
    coordinates: [  0.083333333331500,  0.749999999999333,  0.416666666670166 ]
    mass: 28.085000
    reduced_to: 109
  - symbol: Si # 179
    coordinates: [  0.083333333331500,  0.916666666666000,  0.583333333336833 ]
    mass: 28.085000
    reduced_to: 109
  - symbol: Si # 180
    coordinates: [  0.083333333331500,  0.083333333332666,  0.750000000003500 ]
    mass: 28.085000
    reduced_to: 109
  - symbol: Si # 181
    coordinates: [  0.416666666664833,  0.416666666666000,  0.083333333336833 ]
    mass: 28.085000
    reduced_to: 109
  - symbol: Si # 182
    coordinates: [  0.416666666664833,  0.583333333332666,  0.250000000003500 ]
    mass: 28.085000
    reduced_to: 109
  - symbol: Si # 183
    coordinates: [  0.416666666664833,  0.749999999999333,  0.416666666670166 ]
    mass: 28.085000
    reduced_to: 109
  - symbol: Si # 184
    coordinates: [  0.416666666664833,  0.916666666666000,  0.583333333336833 ]
    mass: 28.085000
    reduced_to: 109
  - symbol: Si # 185
    coordinates: [  0.416666666664833,  0.083333333332666,  0.750000000003500 ]
    mass: 28.085000
    reduced_to: 109
  - symbol: Si # 186
    coordinates: [  0.416666666664833,  0.249999999999333,  0.916666666670166 ]
    mass: 28.085000
    reduced_to: 109
  - symbol: Si # 187
    coordinates: [  0.583333333331500,  0.416666666666000,  0.250000000003500 ]
    mass: 28.085000
    reduced_to: 109
  - symbol: Si # 188
    coordinates: [  0.583333333331500,  0.583333333332666,  0.416666666670166 ]
    mass: 28.085000
    reduced_to: 109
  - symbol: Si # 189
    coordinates: [  0.583333333331500,  0.749999999999333,  0.583333333336833 ]
    mass: 28.085000
    reduced_to: 109
  - symbol: Si # 190
    coordinates: [  0.583333333331500,  0.916666666666000,  0.750000000003500 ]
    mass: 28.085000
    reduced_to: 109
  - symbol: Si # 191
    coordinates: [  0.583333333331500,  0.083333333332666,  0.916666666670166 ]
    mass: 28.085000
    reduced_to: 109
  - symbol: Si # 192
    coordinates: [  0.583333333331500,  0.249999999999333,  0.083333333336833 ]
    mass: 28.085000
    reduced_to: 109
  - symbol: Si # 193
    coordinates: [  0.749999999998167,  0.416666666666000,  0.416666666670166 ]
    mass: 28.085000
    reduced_to: 109
  - symbol: Si # 194
    coordinates: [  0.749999999998167,  0.583333333332666,  0.583333333336833 ]
    mass: 28.085000
    reduced_to: 109
  - symbol: Si # 195
    coordinates: [  0.749999999998167,  0.749999999999333,  0.750000000003500 ]
    mass: 28.085000
    reduced_to: 109
  - symbol: Si # 196
    coordinates: [  0.749999999998167,  0.916666666666000,  0.916666666670166 ]
    mass: 28.085000
    reduced_to: 109
  - symbol: Si # 197
    coordinates: [  0.749999999998167,  0.083333333332666,  0.083333333336833 ]
    mass: 28.085000
    reduced_to: 109
  - symbol: Si # 198
    coordinates: [  0.749999999998167,  0.249999999999333,  0.250000000003500 ]
    mass: 28.085000
    reduced_to: 109
  - symbol: Si # 199
    coordinates: [  0.916666666664833,  0.416666666666000,  0.583333333336833 ]
    mass: 28.085000
    reduced_to: 109
  - symbol: Si # 200
    coordinates: [  0.916666666664833,  0.583333333332666,  0.750000000003500 ]
    mass: 28.085000
    reduced_to: 109
  - symbol: Si # 201
    coordinates: [  0.916666666664833,  0.749999999999333,  0.916666666670166 ]
    mass: 28.085000
    reduced_to: 109
  - symbol: Si # 202
    coordinates: [  0.916666666664833,  0.916666666666000,  0.083333333336833 ]