------------------------------------------------------------
          Invoking FHI-aims ...

          When using FHI-aims, please cite the following reference:

            Volker Blum, Ralf Gehrke, Felix Hanke, Paula Havu,
            Ville Havu, Xinguo Ren, Karsten Reuter, and Matthias Scheffler,
            'Ab Initio Molecular Simulations with Numeric Atom-Centered Orbitals',
            Computer Physics Communications 180, 2175-2196 (2009)

          In addition, many other developments in FHI-aims are likely important for
          your particular application. If so, please cite them. A partial list of references
          is written at the end of this file. Thank you for giving credit to the authors
          of these developments.

          For general information about FHI-aims please find us at

            https://fhi-aims.org

          Online tutorials can be found at

            https://fhi-aims-club.gitlab.io/tutorials/tutorials-overview/

          For any questions about FHI-aims, please visit our slack channel at

            https://fhi-aims.slack.com

          and our main development and support site at

            https://aims-git.rz-berlin.mpg.de .

          The latter site, in particular, has a wiki to collect information, as well
          as an issue tracker to log discussions, suggest improvements, and report issues
          or bugs. https://aims-git.rz-berlin.mpg.de is also the main development site
          of the project and all new and updated code versions can be obtained there.
          Please send an email to aims-coordinators@fhi-berlin.mpg.de and we will add
          you to these sites. They are for you and everyone is welcome there.

------------------------------------------------------------



  Date     :  20250610, Time     :  142801.492
  Time zero on CPU 1             :   0.100274000000000E+00  s.
  Internal wall clock time zero  :           518797681.492  s.

  FHI-aims created a unique identifier for this run for later identification
  aims_uuid : 94923FEE-2EF6-4CD8-A2D4-1E98A49A192C

  Build configuration of the current instance of FHI-aims
  -------------------------------------------------------
  FHI-aims version      : 240206
  Commit number         : 583c55b2e
  CMake host system     : Darwin-23.4.0
  CMake version         : 3.29.1
  Fortran compiler      : /opt/homebrew/bin/mpif90 (GNU) version 13.2.0
  Fortran compiler flags: -O3 -fallow-argument-mismatch -ffree-line-length-none -framework accelerate
  C compiler            : /opt/homebrew/bin/mpicc (AppleClang) version 15.0.0.15000309
  C compiler flags      : -O3 -framework accelerate
  C++ compiler          : /opt/homebrew/bin/mpic++ (AppleClang) version 15.0.0.15000309
  C++ compiler flags    : -O3 -framework accelerate
  HIP compiler          :
  HIP compiler flags    :
  HIP GPU arch          :
  Using MPI
  Using ScaLAPACK
  Using LibXC
  Using i-PI
  Using RLSY
  Linking against: /Users/carbogno/Codes/2023_Scalapack/libscalapack.a

  Using        8 parallel tasks.
  Task        0 on host ThMac05.local reporting.
  Task        1 on host ThMac05.local reporting.
  Task        2 on host ThMac05.local reporting.
  Task        3 on host ThMac05.local reporting.
  Task        4 on host ThMac05.local reporting.
  Task        5 on host ThMac05.local reporting.
  Task        6 on host ThMac05.local reporting.
  Task        7 on host ThMac05.local reporting.

  Memory overcommitment: We could not find /proc/sys/vm/overcommit_memory on your system.

  Obtaining array dimensions for all initial allocations:
  
  -----------------------------------------------------------------------
  Parsing control.in (first pass over file, find array dimensions only).
  The contents of control.in will be repeated verbatim below
  unless switched off by setting 'verbatim_writeout .false.' .
  in the first line of control.in .
  -----------------------------------------------------------------------
  
  #===============================================================================
  # FHI-aims file: ./control.in
  # Created using the Atomic Simulation Environment (ASE)
  # Tue Jun 10 14:28:01 2025
  #===============================================================================
  xc                                 pw-lda
  k_grid                             4 4 4
  sc_accuracy_rho                    1e-06
  relativistic                       atomic_zora scalar
  output_level                       MD_light
  use_pimd_wrapper                   localhost 10005
  #===============================================================================
  
  ################################################################################
  #
  #  FHI-aims code project
  #  VB, Fritz-Haber Institut, 2009
  #
  #  Suggested "light" defaults for Si atom (to be pasted into control.in file)
  #  Be sure to double-check any results obtained with these settings for post-processing,
  #  e.g., with the "tight" defaults and larger basis sets.
  #
  #  2020/09/08 Added f function to "light" after reinspection of Delta test outcomes.
  #             This was done for all of Al-Cl and is a tricky decision since it makes
  #             "light" calculations measurably more expensive for these elements.
  #             Nevertheless, outcomes for P, S, Cl (and to some extent, Si) appear
  #             to justify this choice.
  #
  ################################################################################
    species        Si
  #     global species definitions
      nucleus             14
      mass                28.0855
  #
      l_hartree           4
  #
      cut_pot             3.5          1.5  1.0
      basis_dep_cutoff    1e-4
  #
      radial_base         42 5.0
      radial_multiplier   1
      angular_grids       specified
        division   0.5866   50
        division   0.9616  110
        division   1.2249  194
        division   1.3795  302
  #      division   1.4810  434
  #      division   1.5529  590
  #      division   1.6284  770
  #      division   1.7077  974
  #      division   2.4068 1202
  #      outer_grid   974
        outer_grid 302
  ################################################################################
  #
  #  Definition of "minimal" basis
  #
  ################################################################################
  #     valence basis states
      valence      3  s   2.
      valence      3  p   2.
  #     ion occupancy
      ion_occ      3  s   1.
      ion_occ      3  p   1.
  ################################################################################
  #
  #  Suggested additional basis functions. For production calculations,
  #  uncomment them one after another (the most important basis functions are
  #  listed first).
  #
  #  Constructed for dimers: 1.75 A, 2.0 A, 2.25 A, 2.75 A, 3.75 A
  #
  ################################################################################
  #  "First tier" - improvements: -571.96 meV to -37.03 meV
       hydro 3 d 4.2
       hydro 2 p 1.4
       hydro 4 f 6.2
       ionic 3 s auto
  #  "Second tier" - improvements: -16.76 meV to -3.03 meV
  #     hydro 3 d 9
  #     hydro 5 g 9.4
  #     hydro 4 p 4
  #     hydro 1 s 0.65
  #  "Third tier" - improvements: -3.89 meV to -0.60 meV
  #     ionic 3 d auto
  #     hydro 3 s 2.6
  #     hydro 4 f 8.4
  #     hydro 3 d 3.4
  #     hydro 3 p 7.8
  #  "Fourth tier" - improvements: -0.33 meV to -0.11 meV
  #     hydro 2 p 1.6
  #     hydro 5 g 10.8
  #     hydro 5 f 11.2
  #     hydro 3 d 1
  #     hydro 4 s 4.5
  #  Further basis functions that fell out of the optimization - noise
  #  level... < -0.08 meV
  #     hydro 4 d 6.6
  #     hydro 5 g 16.4
  #     hydro 4 d 9
  
  -----------------------------------------------------------------------
  Completed first pass over input file control.in .
  -----------------------------------------------------------------------
  
  
  -----------------------------------------------------------------------
  Parsing geometry.in (first pass over file, find array dimensions only).
  The contents of geometry.in will be repeated verbatim below
  unless switched off by setting 'verbatim_writeout .false.' .
  in the first line of geometry.in .
  -----------------------------------------------------------------------
  
  #=======================================================
  # FHI-aims file: ./geometry.in
  # Created using the Atomic Simulation Environment (ASE)
  # Tue Jun 10 14:28:01 2025
  #=======================================================
  lattice_vector 5.4088325884509993 0.0000000000639995 0.0000000001369997
  lattice_vector 0.0000000000629998 5.4088325742939993 0.0000000001030003
  lattice_vector 0.0000000001370002 0.0000000001020002 5.4088325742309999
  atom_frac -0.0154571957663406 0.0010378250431360 0.0024402977122133 Si
  atom_frac 0.0071558632496616 0.5164151788866338 0.4982384579118189 Si
  atom_frac 0.5130909472319414 -0.0011652779069062 0.4990554393756575 Si
  atom_frac 0.4950822287162533 0.5002739938807511 -0.0149526624575147 Si
  atom_frac 0.2512855120209988 0.2406564439086240 0.2656418639068684 Si
  atom_frac 0.2583625792315641 0.7528868336753010 0.7537547292903696 Si
  atom_frac 0.7499825740038724 0.2458168770030814 0.7399241398839469 Si
  atom_frac 0.7404974913119265 0.7440781254662947 0.2558977343768261 Si
  
  -----------------------------------------------------------------------
  Completed first pass over input file geometry.in .
  -----------------------------------------------------------------------
  

  Basic array size parameters:
  | Number of species                 :        1
  | Number of atoms                   :        8
  | Number of lattice vectors         :        3
  | Max. basis fn. angular momentum   :        3
  | Max. atomic/ionic basis occupied n:        3
  | Max. number of basis fn. types    :        3
  | Max. radial fns per species/type  :        5
  | Max. logarithmic grid size        :     1346
  | Max. radial integration grid size :       42
  | Max. angular integration grid size:      302
  | Max. angular grid division number :        8
  | Radial grid for Hartree potential :     1346
  | Number of spin channels           :        1

------------------------------------------------------------
          Reading file control.in.
------------------------------------------------------------
  XC: Using Perdew-Wang parametrisation of Ceperley-Alder LDA.
  Found k-point grid:         4         4         4
  Convergence accuracy of self-consistent charge density:  0.1000E-05
  Scalar relativistic treatment of kinetic energy: on-site free-atom approximation to ZORA.
  Requested output level: MD_light
  Using external wrapper (i-PI) for performing (path integral) molecular dynamics
  **Attention: initial geometry.in file will be ignored!

  Reading configuration options for species Si                  .
  | Found nuclear charge :  14.0000
  | Found atomic mass :    28.085500000000000      amu
  | Found l_max for Hartree potential  :   4
  | Found cutoff potl. onset [A], width [A], scale factor :    3.50000    1.50000    1.00000
  | Threshold for basis-dependent cutoff potential is   0.100000E-03
  | Found data for basic radial integration grid :    42 points, outermost radius =    5.000 A
  | Found multiplier for basic radial grid :   1
  | Found angular grid specification: user-specified.
  | Specified grid contains     5 separate shells.
  | Check grid settings after all constraints further below.
  | Found free-atom valence shell :  3 s   2.000
  | Found free-atom valence shell :  3 p   2.000
  | Found free-ion valence shell :  3 s   1.000
  | Found free-ion valence shell :  3 p   1.000
  | Found hydrogenic basis function :  3 d   4.200
  | Found hydrogenic basis function :  2 p   1.400
  | Found hydrogenic basis function :  4 f   6.200
  | Found ionic basis function :  3 s , default cutoff radius.
  Species Si                  : Missing cutoff potential type.
  Defaulting to exp(1/x)/(1-x)^2 type cutoff potential.
  Species Si: No 'logarithmic' tag. Using default grid for free atom:
  | Default logarithmic grid data [bohr] : 0.1000E-03 0.1000E+03 0.1012E+01
  | Will include ionic basis functions of  2.0-fold positive Si                   ion.
  Species Si: On-site basis accuracy parameter (for Gram-Schmidt orthonormalisation) not specified.
  Using default value basis_acc =  0.1000000E-03.
  Species Si                  : Using default innermost maximum threshold i_radial=  2 for radial functions.
  Species Si                  : Default cutoff onset for free atom density etc. : 0.35000000E+01 AA.
  Species Si                  : Basic radial grid will be enhanced according to radial_multiplier =   1, to contain    42 grid points.

  Finished reading input file 'control.in'.

------------------------------------------------------------


------------------------------------------------------------
          Reading geometry description geometry.in.
------------------------------------------------------------
  | The smallest distance between any two atoms is         2.25195697 AA.
  | The first atom of this pair is atom number                      4 .
  | The second atom of this pair is atom number                     6 .
  | Wigner-Seitz cell of the first atom image           0     0     0 .
  | (The Wigner-Seitz cell of the second atom is 0 0 0  by definition.)

  Symmetry information by spglib:
  | Precision set to  0.1E-04
  | Number of Operations  : 1
  | Space group           : 1
  | International         : P1
  | Schoenflies           : C1^1
  Input structure read successfully.
  The structure contains        8 atoms,  and a total of        112.000 electrons.

  Input geometry:
  | Unit cell:
  |        5.40883259        0.00000000        0.00000000
  |        0.00000000        5.40883257        0.00000000
  |        0.00000000        0.00000000        5.40883257
  | Atomic structure:
  |       Atom                x [A]            y [A]            z [A]
  |    1: Species Si           -0.08360538        0.00561342        0.01319916
  |    2: Species Si            0.03870487        2.79320324        2.69488840
  |    3: Species Si            2.77522304       -0.00630279        2.69930732
  |    4: Species Si            2.67781689        2.70589827       -0.08087645
  |    5: Species Si            1.35916127        1.30167041        1.43681237
  |    6: Species Si            1.39743994        4.07223883        4.07693313
  |    7: Species Si            4.05653019        1.32958233        4.00212579
  |    8: Species Si            4.00522696        4.02459400        1.38410800

  Lattice parameters for 3D lattice (in Angstroms) :     5.408833    5.408833    5.408833
  Angle(s) between unit vectors (in degrees)       :    90.000000   90.000000   90.000000


  Quantities derived from the lattice vectors (in Angstrom^-1):
  | Reciprocal lattice vector 1:  1.161653 -0.000000 -0.000000
  | Reciprocal lattice vector 2: -0.000000  1.161653 -0.000000
  | Reciprocal lattice vector 3: -0.000000 -0.000000  1.161653
  | Unit cell volume                               :   0.158238E+03  Angstrom^3

  Slab Identifier: This seems to be a bulk system.

  Finished reading input file 'geometry.in'.



  Consistency checks for stacksize environment parameter are next.

  | Maximum stacksize for task 0: 63 [Mb]
  | Maximum stacksize for task 1: 63 [Mb]
  | Maximum stacksize for task 2: 63 [Mb]
  | Maximum stacksize for task 3: 63 [Mb]
  | Maximum stacksize for task 4: 63 [Mb]
  | Maximum stacksize for task 5: 63 [Mb]
  | Maximum stacksize for task 6: 63 [Mb]
  | Maximum stacksize for task 7: 63 [Mb]
   *** Stacksize is not set to unlimited. This might cause problems...
  | Current stacksize for task 0: 63 [Mb]
  | Current stacksize for task 1: 63 [Mb]
  | Current stacksize for task 2: 63 [Mb]
  | Current stacksize for task 3: 63 [Mb]
  | Current stacksize for task 4: 63 [Mb]
  | Current stacksize for task 5: 63 [Mb]
  | Current stacksize for task 6: 63 [Mb]
  | Current stacksize for task 7: 63 [Mb]

  Consistency checks for the contents of control.in are next.

  MPI_IN_PLACE appears to work with this MPI implementation.
  | Keeping use_mpi_in_place .true. (see manual).
  Target number of points in a grid batch is not set. Defaulting to  100
  Method for grid partitioning is not set. Defaulting to parallel hash+maxmin partitioning.
  Batch size limit is not set. Defaulting to    200
  By default, will store active basis functions for each batch.
  If in need of memory, prune_basis_once .false. can be used to disable this option.
  communication_type for Hartree potential was not specified.
  Defaulting to calc_hartree .
  Defaulting to Pulay charge density mixer.
  Pulay mixer: Number of relevant iterations not set.
  Defaulting to    8 iterations.
  Pulay mixer: Number of initial linear mixing iterations not set.
  Defaulting to    0 iterations.
  Work space size for distributed Hartree potential not set.
  Defaulting to   0.200000E+03 MB.
  Mixing parameter for charge density mixing has not been set.
  Using default: charge_mix_param =     0.0500.
  The mixing parameter will be adjusted in iteration number     2 of the first full s.c.f. cycle only.
  Algorithm-dependent basis array size parameters:
  | n_max_pulay                         :        8
  Maximum number of self-consistency iterations not provided.
  Presetting  1000 iterations.
  Presetting      1001 iterations before the initial mixing cycle
  is restarted anyway using the sc_init_iter criterion / keyword.
  Presetting a factor      1.000 between actual scf density residual
  and density convergence criterion sc_accuracy_rho below which sc_init_iter
  takes no effect.
  Calculation of forces was not defined in control.in. No forces will be calculated.
  Geometry relaxation not requested: no relaxation will be performed.
  Force calculation: scf convergence accuracy of forces not set.
  Defaulting to 'sc_accuracy_forces not_checked'.
  Handling of forces: Unphysical translation and rotation will be removed from forces.
  No accuracy limit for integral partition fn. given. Defaulting to  0.1000E-14.
  No threshold value for u(r) in integrations given. Defaulting to  0.1000E-05.
  No occupation type (smearing scheme) given. Defaulting to Gaussian broadening, width =  0.1000E-01 eV.
  The width will be adjusted in iteration number     2 of the first full s.c.f. cycle only.
  S.C.F. convergence parameters will be adjusted in iteration number     2 of the first full s.c.f. cycle only.
  No accuracy for occupation numbers given. Defaulting to  0.1000E-12.
  No threshold value for occupation numbers given. Defaulting to  0.0000E+00.
  No accuracy for fermi level given. Defaulting to  0.1000E-19.
  Maximum # of iterations to find E_F not set. Defaulting to  200.
  Preferred method for the eigenvalue solver ('KS_method') not specified in 'control.in'.
  Defaulting to serial version, LAPACK (via ELSI), since more k-points than CPUs available.
  Will not use alltoall communication since running on < 1024 CPUs.
  Threshold for basis singularities not set.
  Default threshold for basis singularities:  0.1000E-04
  partition_type (choice of integration weights) for integrals was not specified.
  | Using a version of the partition function of Stratmann and coworkers ('stratmann_sparse').
  | At each grid point, the set of atoms used to build the partition table is smoothly restricted to
  | only those atoms whose free-atom density would be non-zero at that grid point.
  Partitioning for Hartree potential was not defined. Using partition_type for integrals.
  | Adjusted default value of keyword multip_moments_threshold to:       0.10000000E-11
  | This value may affect high angular momentum components of the Hartree potential in periodic systems.
  Spin handling was not defined in control.in. Defaulting to unpolarized case.
  No q(lm)/r^(l+1) cutoff set for long-range Hartree potential.
  | Using default value of  0.100000E-09 .
  | Verify using the multipole_threshold keyword.
  Defaulting to new monopole extrapolation.
  Density update method: automatic selection selected.
  Using density matrix based charge density update.
  Using density matrix based charge density update.
  Using packed matrix style: index .
  Defaulting to use time-reversal symmetry for k-point grid.
  Charge integration errors on the 3D integration grid will be compensated
  by explicit normalization and distribution of residual charges.
  Use the "compensate_multipole_errors" flag to change this behaviour.
  Set 'collect_eigenvectors' to be '.true.' for all serial calculations. This is mandatory.
  Set 'collect_eigenvectors' to be '.true.' for KS_method lapack_fast and serial.

  Consistency checks for the contents of geometry.in are next.


  Range separation radius for Ewald summation (hartree_convergence_parameter):      3.87147161 bohr.
  Number of empty states per atom not set in control.in - providing a guess from actual geometry.
  | Total number of empty states used during s.c.f. cycle:       24
  If you use a very high smearing, use empty_states (per atom!) in control.in to increase this value.

  Structure-dependent array size parameters: 
  | Maximum number of distinct radial functions  :        9
  | Maximum number of basis functions            :      200
  | Number of Kohn-Sham states (occupied + empty):       80
------------------------------------------------------------

************************** W A R N I N G *******************************
* You are using the PIMD wrapper. Specifications and positions         *
* in geometry.in will be IGNORED - all is received from the wrapper.   *
* Please make sure species are declared in the same order in           *
* geometry.in and wrapper input.                                       *
************************************************************************


  Performing system and environment tests:
  | Environment variable OMP_NUM_THREADS correctly set to 1.
  | Checking for ScaLAPACK...
  | Testing pdtran()...
  | All pdtran() tests passed.

------------------------------------------------------------
          Preparing all fixed parts of the calculation.
------------------------------------------------------------
  Determining machine precision:
     2.2250738585072014E-308
  Setting up grids for atomic and cluster calculations.

  Creating wave function, potential, and density for free atoms.
  Runtime choices for atomic solver:
  | atomic solver xc        : PW-LDA
  | compute density gradient: 0
  | compute kinetic density : F

  Species: Si

  List of occupied orbitals and eigenvalues:
    n    l              occ      energy [Ha]    energy [eV]
    1    0           2.0000       -65.491668     -1782.1190
    2    0           2.0000        -5.087967      -138.4506
    3    0           2.0000        -0.391471       -10.6525
    2    1           6.0000        -3.502246       -95.3010
    3    1           2.0000        -0.143943        -3.9169


  Adding cutoff potential to free-atom effective potential.
  Creating fixed part of basis set: Ionic, confined, hydrogenic.

  Si                   ion:

  List of free ionic orbitals and eigenvalues:
    n    l      energy [Ha]    energy [eV]
    1    0       -66.364436     -1805.8682
    2    0        -5.935799      -161.5213
    3    0        -1.078166       -29.3384
    2    1        -4.351123      -118.4001
    3    1        -0.781733       -21.2720


  List of ionic basis orbitals and eigenvalues:
    n    l      energy [Ha]    energy [eV]    outer radius [A]
    3    0        -1.078146       -29.3378       4.214062


  Si                   hydrogenic:

  List of hydrogenic basis orbitals: 
    n    l      effective z      eigenvalue [eV]  inner max. [A]     outer max. [A]     outer radius [A]   
    3    2         4.200000       -26.6624           1.139231           1.139231           4.534782
    2    1         1.400000        -6.4613           1.472672           1.472672           4.590560
    4    3         6.200000       -32.6778           1.368518           1.368518           4.534782

  Creating atomic-like basis functions for current effective potential.

  Species Si                  :

  List of atomic basis orbitals and eigenvalues:
    n    l      energy [Ha]    energy [eV]    outer radius [A]
    1    0       -65.491668     -1782.1190       0.789468
    2    0        -5.087967      -138.4506       2.815114
    3    0        -0.391471       -10.6525       4.534782
    2    1        -3.502246       -95.3010       3.259919
    3    1        -0.143943        -3.9169       4.590560

  Assembling full basis from fixed parts.
  | Species Si :   atomic orbital   1 s accepted.
  | Species Si :   atomic orbital   2 s accepted.
  | Species Si :    ionic orbital   3 s accepted.
  | Species Si :   atomic orbital   3 s accepted.
  | Species Si :   atomic orbital   2 p accepted.
  | Species Si :   atomic orbital   3 p accepted.
  | Species Si :    hydro orbital   2 p accepted.
  | Species Si :    hydro orbital   3 d accepted.
  | Species Si :    hydro orbital   4 f accepted.

  Basis size parameters after reduction:
  | Total number of radial functions:        9
  | Total number of basis functions :      200

  Per-task memory consumption for arrays in subroutine allocate_ext:
  |           3.106072MB.
  Testing on-site integration grid accuracy.
  |  Species  Function  <phi|h_atom|phi> (log., in eV)  <phi|h_atom|phi> (rad., in eV)
           1        1              -1782.1189727076              -1782.1182429251
           1        2               -138.4506350693               -138.4506310079
           1        3                -10.3030408815                -10.3029120678
           1        4                  5.0238999146                  4.9457540310 ***
           1        5                -95.3009689499                -95.3009689315
           1        6                 -3.9266496564                 -3.9420918374
           1        7                  6.3453628447                  6.1632372158 ***
           1        8                  6.2883050744                  6.2861881409
           1        9                 19.3222464920                 19.3177041052
 * Note: Onsite integrals marked "***" above are less accurate than
 * onsite_accuracy_threshold =    0.03000 eV. Usually, this is harmless.
 * When in doubt, tighten the "radial" and/or "radial_multiplier" flags to check.

  Preparing densities etc. for the partition functions (integrals / Hartree potential).

  Preparations completed.
  max(cpu_time)          :      0.091 s.
  Wall clock time (cpu1) :      0.100 s.
------------------------------------------------------------

  Initializing index lists of integration centers etc. from given atomic structure:
  Mapping all atomic coordinates to central unit cell.

  Initializing the k-points
  Using symmetry for reducing the k-points
  | k-points reduced from:       64 to       36
  | Number of k-points                             :        36
  The eigenvectors in the calculations are COMPLEX.
  | K-points in task   0:         4
  | K-points in task   1:         5
  | K-points in task   2:         5
  | K-points in task   3:         5
  | K-points in task   4:         5
  | K-points in task   5:         4
  | K-points in task   6:         4
  | K-points in task   7:         4
  | Number of basis functions in the Hamiltonian integrals :      3165
  | Number of basis functions in a single unit cell        :       200
  | Number of centers in hartree potential         :      1018
  | Number of centers in hartree multipole         :       495
  | Number of centers in electron density summation:       326
  | Number of centers in basis integrals           :       363
  | Number of centers in integrals                 :       143
  | Number of centers in hamiltonian               :       326
  | Consuming         42 KiB for k_phase.
  | Number of super-cells (origin) [n_cells]                     :         729
  | Number of super-cells (after PM_index) [n_cells]             :          76
  | Number of super-cells in hamiltonian [n_cells_in_hamiltonian]:          76
  | Size of matrix packed + index [n_hamiltonian_matrix_size] :      352991
* Skipping the SCF initialization for now - done inside wrapper      *
  @ DRIVER MODE: Connecting to host:port localhost       10005
  @ DRIVER MODE: Message from server: STATUS      
  @ DRIVER MODE: Message from server: POSDATA     
  @ DRIVER MODE: Received positions 

  Initializing index lists of integration centers etc. from given atomic structure:
  Mapping all atomic coordinates to central unit cell.

  Initializing the k-points
  Using symmetry for reducing the k-points
  | k-points reduced from:       64 to       36
  | Number of k-points                             :        36
  The eigenvectors in the calculations are COMPLEX.
  | K-points in task   0:         4
  | K-points in task   1:         5
  | K-points in task   2:         5
  | K-points in task   3:         5
  | K-points in task   4:         5
  | K-points in task   5:         4
  | K-points in task   6:         4
  | K-points in task   7:         4
  | Number of basis functions in the Hamiltonian integrals :      3165
  | Number of basis functions in a single unit cell        :       200
  | Number of centers in hartree potential         :      1018
  | Number of centers in hartree multipole         :       495
  | Number of centers in electron density summation:       326
  | Number of centers in basis integrals           :       363
  | Number of centers in integrals                 :       143
  | Number of centers in hamiltonian               :       326
  | Consuming         42 KiB for k_phase.
  | Number of super-cells (origin) [n_cells]                     :         729
  | Number of super-cells (after PM_index) [n_cells]             :          76
  | Number of super-cells in hamiltonian [n_cells_in_hamiltonian]:          76
  | Size of matrix packed + index [n_hamiltonian_matrix_size] :      352991

------------------------------------------------------------
          Begin self-consistency loop: Initialization.

          Date     :  20250610, Time     :  142801.719
------------------------------------------------------------
  | Estimated reciprocal-space cutoff momentum G_max:         2.41181531 bohr^-1 .
  | Reciprocal lattice points for long-range Hartree potential:     250
  Partitioning the integration grid into batches with parallel hashing+maxmin method.
  | Number of batches:      592
  | Maximal batch size:     112
  | Minimal batch size:      49
  | Average batch size:      75.730
  | Standard deviation of batch sizes:      18.357

  Integration load balanced across     8 MPI tasks.
  Work distribution over tasks is as follows:
  Task     0 has       5587 integration points.
  Task     1 has       5586 integration points.
  Task     2 has       5606 integration points.
  Task     3 has       5613 integration points.
  Task     4 has       5629 integration points.
  Task     5 has       5622 integration points.
  Task     6 has       5583 integration points.
  Task     7 has       5606 integration points.
  Initializing partition tables, free-atom densities, potentials, etc. across the integration grid (initialize_grid_storage).
  | initialize_grid_storage: Actual outermost partition radius vs. multipole_radius_free
  | (-- VB: in principle, multipole_radius_free should be larger, hence this output)
  | Species        1: Confinement radius =              4.999999999999999 AA, multipole_radius_free =              5.000694715736543 AA.
  | Species        1: outer_partition_radius set to              5.000694715736543 AA .
  | The sparse table of interatomic distances needs        465.47 kbyte instead of      1054.15 kbyte of memory.
  | Net number of integration points:    44832
  | of which are non-zero points    :    38908
  | Numerical average free-atom electrostatic potential    :    -13.30159683 eV
  Renormalizing the initial density to the exact electron count on the 3D integration grid.
  | Initial density: Formal number of electrons (from input files) :     112.0000000000
  | Integrated number of electrons on 3D grid     :     112.0137648804
  | Charge integration error                      :       0.0137648804
  | Normalization factor for density and gradient :       0.9998771144
  Renormalizing the free-atom superposition density to the exact electron count on the 3D integration grid.
  | Formal number of electrons (from input files) :     112.0000000000
  | Integrated number of electrons on 3D grid     :     112.0137648804
  | Charge integration error                      :       0.0137648804
  | Normalization factor for density and gradient :       0.9998771144
  Obtaining max. number of non-zero basis functions in each batch (get_n_compute_maxes).
  | Maximal number of non-zero basis functions:      716 in task     0
  | Maximal number of non-zero basis functions:      705 in task     1
  | Maximal number of non-zero basis functions:      690 in task     2
  | Maximal number of non-zero basis functions:      685 in task     3
  | Maximal number of non-zero basis functions:      691 in task     4
  | Maximal number of non-zero basis functions:      722 in task     5
  | Maximal number of non-zero basis functions:      704 in task     6
  | Maximal number of non-zero basis functions:      707 in task     7
  Allocating        0.977 MB for KS_eigenvector_complex
  Integrating Hamiltonian matrix: batch-based integration.
  Time summed over all CPUs for integration: real work        1.441 s, elapsed        1.659 s
  Integrating overlap matrix.
  Time summed over all CPUs for integration: real work        1.034 s, elapsed        1.096 s
  Decreasing sparse matrix size:
  | Tolerance:  0.1000E-12
  Hamiltonian matrix
  | Array has   324793 nonzero elements out of   352991 elements
  | Sparsity factor is 0.080
  Overlap matrix
  | Array has   314428 nonzero elements out of   352991 elements
  | Sparsity factor is 0.109
  New size of hamiltonian matrix:      324809

  Updating Kohn-Sham eigenvalues and eigenvectors using ELSI and the (modified) LAPACK eigensolver.

  Obtaining occupation numbers and electronic chemical potential using ELSI.
  | Note that, for insulating systems, the printed 'chemical potential' value is not uniquely defined.
  | It can be anywhere in the energy gap, as long as it correctly separates occupied and unoccupied states.
  | In systems with a gap, the physically relevant chemical potential is the VBM or HOMO.

  | Chemical potential (Fermi level):    -5.88396558 eV
  Writing Kohn-Sham eigenvalues.
  K-point:       1 at    0.000000    0.000000    0.000000 (in units of recip. lattice)

  State    Occupation    Eigenvalue [Ha]    Eigenvalue [eV]
      1       2.00000         -65.518019        -1782.83599
      2       2.00000         -65.515652        -1782.77160
      3       2.00000         -65.515093        -1782.75638
      4       2.00000         -65.514969        -1782.75301
      5       2.00000         -65.513927        -1782.72465
      6       2.00000         -65.513466        -1782.71212
      7       2.00000         -65.512024        -1782.67288
      8       2.00000         -65.511720        -1782.66459
      9       2.00000          -5.119973         -139.32155
     10       2.00000          -5.117193         -139.24591
     11       2.00000          -5.116537         -139.22807
     12       2.00000          -5.116391         -139.22408
     13       2.00000          -5.115165         -139.19073
     14       2.00000          -5.114614         -139.17574
     15       2.00000          -5.112934         -139.13001
     16       2.00000          -5.112568         -139.12005
     17       2.00000          -3.534539          -96.17969
     18       2.00000          -3.534165          -96.16952
     19       2.00000          -3.533631          -96.15499
     20       2.00000          -3.531611          -96.10002
     21       2.00000          -3.531397          -96.09421
     22       2.00000          -3.531280          -96.09101
     23       2.00000          -3.530911          -96.08097
     24       2.00000          -3.530881          -96.08015
     25       2.00000          -3.530563          -96.07151
     26       2.00000          -3.530517          -96.07026
     27       2.00000          -3.530278          -96.06376
     28       2.00000          -3.530135          -96.05987
     29       2.00000          -3.529577          -96.04468
     30       2.00000          -3.529321          -96.03771
     31       2.00000          -3.529238          -96.03545
     32       2.00000          -3.528769          -96.02270
     33       2.00000          -3.528607          -96.01828
     34       2.00000          -3.528147          -96.00576
     35       2.00000          -3.527405          -95.98559
     36       2.00000          -3.527223          -95.98063
     37       2.00000          -3.527031          -95.97540
     38       2.00000          -3.526767          -95.96822
     39       2.00000          -3.526509          -95.96120
     40       2.00000          -3.526176          -95.95213
     41       2.00000          -0.673133          -18.31689
     42       2.00000          -0.533694          -14.52256
     43       2.00000          -0.526900          -14.33768
     44       2.00000          -0.522627          -14.22139
     45       2.00000          -0.519756          -14.14327
     46       2.00000          -0.512917          -13.95717
     47       2.00000          -0.509732          -13.87051
     48       2.00000          -0.341582           -9.29492
     49       2.00000          -0.340538           -9.26652
     50       2.00000          -0.336471           -9.15583
     51       2.00000          -0.333895           -9.08576
     52       2.00000          -0.331690           -9.02576
     53       2.00000          -0.330547           -8.99463
     54       2.00000          -0.245346           -6.67620
     55       2.00000          -0.234737           -6.38752
     56       2.00000          -0.223046           -6.06938
     57       0.00000          -0.206519           -5.61968
     58       0.00000          -0.204781           -5.57237
     59       0.00000          -0.200060           -5.44391
     60       0.00000          -0.195292           -5.31417
     61       0.00000          -0.191960           -5.22349
     62       0.00000          -0.188582           -5.13158
     63       0.00000          -0.136511           -3.71466
     64       0.00000          -0.131663           -3.58273
     65       0.00000          -0.123842           -3.36992
     66       0.00000          -0.111082           -3.02270
     67       0.00000           0.063520            1.72848
     68       0.00000           0.064012            1.74186
     69       0.00000           0.078926            2.14769
     70       0.00000           0.137369            3.73801
     71       0.00000           0.140641            3.82703
     72       0.00000           0.142368            3.87404
     73       0.00000           0.145399            3.95650
     74       0.00000           0.148324            4.03610
     75       0.00000           0.148852            4.05048
     76       0.00000           0.166465            4.52974
     77       0.00000           0.168647            4.58911
     78       0.00000           0.176516            4.80324
     79       0.00000           0.180945            4.92377
     80       0.00000           0.184786            5.02829

  What follows are estimated values for band gap, HOMO, LUMO, etc.
  | They are estimated on a discrete k-point grid and not necessarily exact.
  | For converged numbers, create a DOS and/or band structure plot on a denser k-grid.

  Highest occupied state (VBM) at     -6.06937978 eV (relative to internal zero)
  | Occupation number:      2.00000000
  | K-point:       1 at    0.000000    0.000000    0.000000 (in units of recip. lattice)

  Lowest unoccupied state (CBM) at    -5.61967719 eV (relative to internal zero)
  | Occupation number:      0.00000000
  | K-point:       1 at    0.000000    0.000000    0.000000 (in units of recip. lattice)

  ESTIMATED overall HOMO-LUMO gap:      0.44970259 eV between HOMO at k-point 1 and LUMO at k-point 1
  | This appears to be a direct band gap.
  The gap value is above 0.2 eV. Unless you are using a very sparse k-point grid,
  this system is most likely an insulator or a semiconductor.
  Calculating total energy contributions from superposition of free atom densities.

  Total energy components:
  | Sum of eigenvalues            :       -1312.89126147 Ha      -35725.58892244 eV
  | XC energy correction          :        -158.68053570 Ha       -4317.91706948 eV
  | XC potential correction       :         209.64249548 Ha        5704.66255210 eV
  | Free-atom electrostatic energy:       -1053.04687308 Ha      -28654.86336003 eV
  | Hartree energy correction     :          -0.00000000 Ha          -0.00000000 eV
  | Entropy correction            :          -0.00000000 Ha          -0.00000000 eV
  | ---------------------------
  | Total energy                  :       -2314.97617476 Ha      -62993.70679985 eV
  | Total energy, T -> 0          :       -2314.97617476 Ha      -62993.70679985 eV  <-- do not rely on this value for anything but (periodic) metals
  | Electronic free energy        :       -2314.97617476 Ha      -62993.70679985 eV

  Derived energy quantities:
  | Kinetic energy                :        2318.90693493 Ha       63100.66822621 eV
  | Electrostatic energy          :       -4475.20257400 Ha     -121776.45795658 eV
  | Energy correction for multipole
  | error in Hartree potential    :           0.00000000 Ha           0.00000000 eV
  | Sum of eigenvalues per atom                           :       -4465.69861530 eV
  | Total energy (T->0) per atom                          :       -7874.21334998 eV  <-- do not rely on this value for anything but (periodic) metals
  | Electronic free energy per atom                       :       -7874.21334998 eV
  Initialize hartree_potential_storage
  Max. number of atoms included in rho_multipole:            8

  End scf initialization - timings             :  max(cpu_time)    wall_clock(cpu1)
  | Time for scf. initialization                :        0.608 s           0.637 s
  | Boundary condition initialization           :        0.030 s           0.031 s
  | Integration                                 :        0.332 s           0.350 s
  | Solution of K.-S. eqns.                     :        0.120 s           0.120 s
  | Grid partitioning                           :        0.035 s           0.035 s
  | Preloading free-atom quantities on grid     :        0.092 s           0.096 s
  | Free-atom superposition energy              :        0.030 s           0.030 s
  | Total energy evaluation                     :        0.000 s           0.000 s

  Partial memory accounting:
  | Current value for overall tracked memory usage:
  |   Minimum:        7.217 MB (on task 0)
  |   Maximum:        7.461 MB (on task 1)
  |   Average:        7.339 MB
  | Peak value for overall tracked memory usage:
  |   Minimum:       13.334 MB (on task 3 after allocating wave)
  |   Maximum:       13.597 MB (on task 1 after allocating wave)
  |   Average:       13.443 MB
  | Largest tracked array allocation so far:
  |   Minimum:        3.580 MB (hamiltonian_shell on task 3)
  |   Maximum:        3.977 MB (hamiltonian_shell on task 5)
  |   Average:        3.766 MB
  Note:  These values currently only include a subset of arrays which are explicitly tracked.
  The "true" memory usage will be greater.
------------------------------------------------------------
  Time for density update prior                :  max(cpu_time)    wall_clock(cpu1)
  | self-consistency iterative process          :        0.206 s           0.212 s
------------------------------------------------------------
Convergence:    q app. |  density  | eigen (eV) | Etot (eV) | forces (eV/A) |       CPU time |     Clock time
  SCF    1 : -0.15E-12 |  0.23E+00 |   0.53E+01 |  0.10E+00 |             . |        0.525 s |        0.539 s
  SCF    2 : -0.12E-12 |  0.22E+00 |   0.83E+02 |  0.68E+00 |             . |        0.523 s |        0.526 s
  SCF    3 : -0.66E-13 |  0.33E-01 |  -0.31E+02 |  0.43E-01 |             . |        0.521 s |        0.528 s
  SCF    4 : -0.22E-12 |  0.20E-01 |   0.67E+01 | -0.13E-03 |             . |        0.538 s |        0.546 s
  SCF    5 : -0.15E-12 |  0.11E-01 |  -0.44E+01 |  0.80E-02 |             . |        0.550 s |        0.569 s
  SCF    6 : -0.99E-13 |  0.47E-02 |  -0.13E+00 |  0.21E-03 |             . |        0.602 s |        0.627 s
  SCF    7 : -0.22E-12 |  0.51E-02 |  -0.95E+00 |  0.16E-02 |             . |        0.567 s |        0.584 s
  SCF    8 : -0.61E-13 |  0.16E-02 |  -0.57E+00 |  0.35E-03 |             . |        0.548 s |        0.567 s
  SCF    9 : -0.16E-12 |  0.28E-03 |   0.22E+00 | -0.94E-04 |             . |        0.536 s |        0.551 s
  SCF   10 : -0.20E-12 |  0.79E-04 |   0.46E-01 | -0.12E-04 |             . |        0.523 s |        0.534 s
  SCF   11 : -0.17E-12 |  0.27E-04 |  -0.59E-02 |  0.21E-05 |             . |        0.560 s |        0.583 s
  SCF   12 : -0.15E-12 |  0.23E-04 |   0.60E-02 |  0.38E-05 |             . |        0.555 s |        0.583 s
  SCF   13 : -0.22E-12 |  0.90E-05 |   0.35E-02 |  0.18E-05 |             . |        0.572 s |        0.605 s
  SCF   14 :  0.78E-13 |  0.32E-05 |  -0.33E-03 |  0.76E-06 |             . |        0.572 s |        0.595 s
  SCF   15 : -0.18E-12 |  0.11E-05 |  -0.65E-04 |  0.17E-06 |             . |        0.545 s |        0.567 s
  SCF   16 : -0.12E-12 |  0.10E-05 |  -0.25E-04 |  0.58E-07 |             . |        0.551 s |        0.570 s
  SCF   17 : -0.21E-13 |  0.95E-06 |   0.71E-04 | -0.10E-06 |             . |        0.551 s |        0.577 s
  SCF   18 : -0.20E-12 |  0.57E-06 |  -0.36E-04 |  0.24E-07 |      0.12E+01 |        2.834 s |        2.896 s

  Total energy components:
  | Sum of eigenvalues            :       -1310.73994979 Ha      -35667.04875334 eV
  | XC energy correction          :        -158.84763045 Ha       -4322.46394906 eV
  | XC potential correction       :         209.86222840 Ha        5710.64178896 eV
  | Free-atom electrostatic energy:       -1053.04687308 Ha      -28654.86336003 eV
  | Hartree energy correction     :          -2.17323093 Ha         -59.13662246 eV
  | Entropy correction            :          -0.00000230 Ha          -0.00006256 eV
  | ---------------------------
  | Total energy                  :       -2314.94545586 Ha      -62992.87089592 eV
  | Total energy, T -> 0          :       -2314.94545816 Ha      -62992.87095847 eV  <-- do not rely on this value for anything but (periodic) metals
  | Electronic free energy        :       -2314.94546046 Ha      -62992.87102103 eV

  Derived energy quantities:
  | Kinetic energy                :        2318.68942377 Ha       63094.74944628 eV
  | Electrostatic energy          :       -4474.78724918 Ha     -121765.15639314 eV
  | Energy correction for multipole
  | error in Hartree potential    :           0.05797327 Ha           1.57753304 eV
  | Sum of eigenvalues per atom                           :       -4458.38109417 eV
  | Total energy (T->0) per atom                          :       -7874.10886981 eV  <-- do not rely on this value for anything but (periodic) metals
  | Electronic free energy per atom                       :       -7874.10887763 eV
  What follows are estimated values for band gap, HOMO, LUMO, etc.
  | They are estimated on a discrete k-point grid and not necessarily exact.
  | For converged numbers, create a DOS and/or band structure plot on a denser k-grid.

  Highest occupied state (VBM) at     -5.62191392 eV (relative to internal zero)
  | Occupation number:      1.95204775
  | K-point:       1 at    0.000000    0.000000    0.000000 (in units of recip. lattice)

  Lowest unoccupied state (CBM) at    -5.48193061 eV (relative to internal zero)
  | Occupation number:      0.04753138
  | K-point:       1 at    0.000000    0.000000    0.000000 (in units of recip. lattice)

  ESTIMATED overall HOMO-LUMO gap:      0.13998331 eV between HOMO at k-point 1 and LUMO at k-point 1
  | This appears to be a direct band gap.
  The gap value is rather small. This may be a metal or a small-gap semiconductor.
  Since we use a finite k-point grid, a DOS and/or band structure plot is required
  for an unambiguous assignment.

  | Chemical Potential                          :    -5.55198843 eV
  | Note that, for insulating systems, the printed 'chemical potential' value is not uniquely defined.
  | It can be anywhere in the energy gap, as long as it correctly separates occupied and unoccupied states.
  | In systems with a gap, the physically relevant chemical potential is the VBM or HOMO.

  Self-consistency cycle converged.

  Removing unitary transformations (pure translations, rotations) from forces on atoms.
  Atomic forces before filtering:
  | Net force on center of mass :  -0.311221E-02  0.356210E-03 -0.181813E-02 eV/A
  Atomic forces after filtering:
  | Net force on center of mass :  -0.446015E-16 -0.669023E-15  0.000000E+00 eV/A

  Energy and forces in a compact form:
  | Total energy uncorrected      :         -0.629928708959172E+05 eV
  | Total energy corrected        :         -0.629928709584725E+05 eV  <-- do not rely on this value for anything but (periodic) metals
  | Electronic free energy        :         -0.629928710210279E+05 eV
  Total atomic forces (unitary forces cleaned) [eV/Ang]:
  |    1          0.829360642129571E+00         -0.189433156206798E+00          0.316070839681802E+00
  |    2         -0.315593148483459E-01         -0.945029329868561E+00          0.297039165853048E+00
  |    3         -0.881167324510103E+00         -0.237689916839008E+00          0.264025184748737E+00
  |    4          0.254813272889277E+00         -0.104231562276033E+01          0.125892716257449E+01
  |    5         -0.299433083655113E+00          0.653801693657134E+00         -0.120939311428187E+01
  |    6         -0.793378805289778E+00          0.921013530599878E+00         -0.139332134938356E+00
  |    7          0.606614151097759E+00          0.105317447117104E+01          0.318466207462415E+00
  |    8          0.314750462186733E+00         -0.213521669753350E+00         -0.110580331110027E+01

  Removing unitary transformations (pure translations, rotations) from forces on atoms.
  Atomic forces before filtering:
  | Net force on center of mass :  -0.446015E-16 -0.669023E-15  0.000000E+00 eV/A
  Atomic forces after filtering:
  | Net force on center of mass :  -0.446015E-16 -0.267609E-15 -0.178406E-15 eV/A
  @ DRIVER - WARNING: the stress tensor will not be computed
 ------------------------------------------------------------------------
 Atomic structure that was used in the preceding time step of the wrapper
                         x [A]             y [A]             z [A]
  lattice_vector         5.40883258        0.00000000        0.00000000
  lattice_vector         0.00000000        5.40883257        0.00000000
  lattice_vector         0.00000000        0.00000000        5.40883257

            atom        -0.08360538        0.00561342        0.01319916  Si
            atom         0.03870487        2.79320324        2.69488840  Si
            atom         2.77522303       -0.00630279        2.69930731  Si
            atom         2.67781689        2.70589827       -0.08087645  Si
            atom         1.35916127        1.30167041        1.43681237  Si
            atom         1.39743994        4.07223883        4.07693313  Si
            atom         4.05653018        1.32958233        4.00212579  Si
            atom         4.00522696        4.02459400        1.38410800  Si
 ------------------------------------------------------------------------
  @ DRIVER MODE: Message from server: STATUS      
  @ DRIVER MODE: Message from server: GETFORCE    
  @ DRIVER MODE: Returning v,forces,stress 

------------------------------------------------------------------------------
  Final output of selected total energy values:

  The following output summarizes some interesting total energy values
  at the end of a run (AFTER all relaxation, molecular dynamics, etc.).

  | Total energy of the DFT / Hartree-Fock s.c.f. calculation      :         -62992.870895917 eV
  | Final zero-broadening corrected energy (caution - metals only) :         -62992.870958473 eV
  | For reference only, the value of 1 Hartree used in FHI-aims is :             27.211384500 eV
  | For reference only, the overall average (free atom contribution
  | + realspace contribution) of the electrostatic potential after
  | s.c.f. convergence is                                          :            -13.000974193 eV

  Before relying on these values, please be sure to understand exactly which
  total energy value is referred to by a given number. Different objects may
  all carry the same name 'total energy'. Definitions:

  Total energy of the DFT / Hartree-Fock s.c.f. calculation:
  | Note that this energy does not include ANY quantities calculated after the
  | s.c.f. cycle, in particular not ANY RPA, MP2, etc. many-body perturbation terms.

  Final zero-broadening corrected energy:
  | For metallic systems only, a broadening of the occupation numbers at the Fermi
  | level can be extrapolated back to zero broadening by an electron-gas inspired
  | formula. For all systems that are not real metals, this value can be
  | meaningless and should be avoided.

------------------------------------------------------------------------------
  Methods described in the following list of references were used in this FHI-aims run.
  If you publish the results, please make sure to cite these reference if they apply.
  FHI-aims is an academic code, and for our developers (often, Ph.D. students
  and postdocs), scientific credit in the community is essential.
  Thank you for helping us!

  For any use of FHI-aims, please cite:

    Volker Blum, Ralf Gehrke, Felix Hanke, Paula Havu, Ville Havu,
    Xinguo Ren, Karsten Reuter, and Matthias Scheffler
    'Ab initio molecular simulations with numeric atom-centered orbitals'
    Computer Physics Communications 180, 2175-2196 (2009)
    http://doi.org/10.1016/j.cpc.2009.06.022


  The provided symmetry information was generated with SPGlib:

    Atsushi Togo, Yusuke Seto, Dimitar Pashov
    SPGlib 1.7.3 obtained from http://spglib.sourceforge.net
    Licence: New BSD license
    Copyright (C) 2008 Atsushi Togo


  The ELSI infrastructure was used in your run to solve the Kohn-Sham electronic structure.
  Please check out http://elsi-interchange.org to learn more.
  If scalability is important for your project, please acknowledge ELSI by citing:

    V. W-z. Yu, F. Corsetti, A. Garcia, W. P. Huhn, M. Jacquelin, W. Jia,
    B. Lange, L. Lin, J. Lu, W. Mi, A. Seifitokaldani, A. Vazquez-Mayagoitia,
    C. Yang, H. Yang, and V. Blum
    'ELSI: A unified software interface for Kohn-Sham electronic structure solvers'
    Computer Physics Communications 222, 267-285 (2018).
    http://doi.org/10.1016/j.cpc.2017.09.007


  For the real-space grid partitioning and parallelization used in this calculation, please cite:

    Ville Havu, Volker Blum, Paula Havu, and Matthias Scheffler,
    'Efficient O(N) integration for all-electron electronic structure calculation'
    'using numerically tabulated basis functions'
    Journal of Computational Physics 228, 8367-8379 (2009).
    http://doi.org/10.1016/j.jcp.2009.08.008

  Of course, there are many other important community references, e.g., those cited in the
  above references. Our list is limited to references that describe implementations in the
  FHI-aims code. The reason is purely practical (length of this list) - please credit others as well.

------------------------------------------------------------
          Leaving FHI-aims.
          Date     :  20250610, Time     :  142815.234

          Computational steps:
          | Number of self-consistency cycles          :           18
          | Number of SCF (re)initializations          :            1

          Detailed time accounting                     :  max(cpu_time)    wall_clock(cpu1)
          | Total time                                  :       13.092 s          13.742 s
          | Preparation time                            :        0.091 s           0.100 s
          | Boundary condition initalization            :        0.030 s           0.031 s
          | Grid partitioning                           :        0.035 s           0.035 s
          | Preloading free-atom quantities on grid     :        0.092 s           0.096 s
          | Free-atom superposition energy              :        0.030 s           0.030 s
          | Total time for integrations                 :        3.760 s           3.892 s
          | Total time for solution of K.-S. equations  :        1.549 s           1.560 s
          | Total time for density & force components   :        5.281 s           5.357 s
          | Total time for mixing                       :        0.010 s           0.010 s
          | Total time for Hartree multipole update     :        0.026 s           0.026 s
          | Total time for Hartree multipole sum        :        1.749 s           1.788 s
          | Total time for total energy evaluation      :        0.001 s           0.004 s
          | Total time NSC force correction             :        0.553 s           0.584 s
          | Total time for scaled ZORA corrections      :        0.000 s           0.000 s

          Partial memory accounting:
          | Residual value for overall tracked memory usage across tasks:     0.000000 MB (should be 0.000000 MB)
          | Peak values for overall tracked memory usage:
          |   Minimum:       20.052 MB (on task 3 after allocating d_wave)
          |   Maximum:       20.649 MB (on task 5 after allocating d_wave)
          |   Average:       20.324 MB
          | Largest tracked array allocation:
          |   Minimum:        3.580 MB (hamiltonian_shell on task 3)
          |   Maximum:        3.977 MB (hamiltonian_shell on task 5)
          |   Average:        3.766 MB
          Note:  These values currently only include a subset of arrays which are explicitly tracked.
          The "true" memory usage will be greater.

          Have a nice day.
------------------------------------------------------------
