nqpoint: 200    
npath: 4      
segment_nqpoint:
- 50
- 50
- 50
- 50
labels:
- [ 'G', 'X' ]
- [ 'X', 'U|K' ]
- [ 'U|K', 'G' ]
- [ 'G', 'L' ]
reciprocal_lattice:
- [  -0.18455273,   0.18455274,   0.18455274 ] # a*
- [   0.18455273,  -0.18455274,   0.18455274 ] # b*
- [   0.18455273,   0.18455274,  -0.18455274 ] # c*
natom: 2      
lattice:
- [    -0.000000000001000,     2.709252719577000,     2.709252719610000 ] # a
- [     2.709252757352000,    -0.000000000010000,     2.709252719619000 ] # b
- [     2.709252757329000,     2.709252719563001,     0.000000000013000 ] # c
points:
- symbol: Si # 1
  coordinates: [  0.999999999986000,  0.999999999993000,  0.000000000018000 ]
  mass: 28.085000
- symbol: Si # 2
  coordinates: [  0.250000000013998,  0.250000000007000,  0.249999999982000 ]
  mass: 28.085000

phonon:
- q-position: [    0.0000000,    0.0000000,    0.0000000 ]
  distance:    0.0000000
  band:
  - # 1
    frequency:   -0.0000003493
  - # 2
    frequency:    0.0000002439
  - # 3
    frequency:    0.0000005247
  - # 4
    frequency:   15.4698519259
  - # 5
    frequency:   15.4698519259
  - # 6
    frequency:   15.4698519259

- q-position: [    0.0102041,    0.0000000,    0.0102041 ]
  distance:    0.0037664
  band:
  - # 1
    frequency:    0.2125983508
  - # 2
    frequency:    0.2125983508
  - # 3
    frequency:    0.3155604551
  - # 4
    frequency:   15.4656583969
  - # 5
    frequency:   15.4656583969
  - # 6
    frequency:   15.4687978198

- q-position: [    0.0204082,    0.0000000,    0.0204082 ]
  distance:    0.0075328
  band:
  - # 1
    frequency:    0.4243470597
  - # 2
    frequency:    0.4243470597
  - # 3
    frequency:    0.6307380293
  - # 4
    frequency:   15.4531541824
  - # 5
    frequency:   15.4531541825
  - # 6
    frequency:   15.4656327416

- q-position: [    0.0306122,    0.0000000,    0.0306122 ]
  distance:    0.0112991
  band:
  - # 1
    frequency:    0.6344043435
  - # 2
    frequency:    0.6344043435
  - # 3
    frequency:    0.9451602620
  - # 4
    frequency:   15.4325658220
  - # 5
    frequency:   15.4325658220
  - # 6
    frequency:   15.4603485169

- q-position: [    0.0408163,    0.0000000,    0.0408163 ]
  distance:    0.0150655
  band:
  - # 1
    frequency:    0.8419443034
  - # 2
    frequency:    0.8419443034
  - # 3
    frequency:    1.2584749471
  - # 4
    frequency:   15.4042623914
  - # 5
    frequency:   15.4042623914
  - # 6
    frequency:   15.4529318601

- q-position: [    0.0510204,    0.0000000,    0.0510204 ]
  distance:    0.0188319
  band:
  - # 1
    frequency:    1.0461652463
  - # 2
    frequency:    1.0461652464
  - # 3
    frequency:    1.5703588304
  - # 4
    frequency:   15.3687431366
  - # 5
    frequency:   15.3687431366
  - # 6
    frequency:   15.4433648433

- q-position: [    0.0612245,    0.0000000,    0.0612245 ]
  distance:    0.0225983
  band:
  - # 1
    frequency:    1.2462983669
  - # 2
    frequency:    1.2462983670
  - # 3
    frequency:    1.8805246836
  - # 4
    frequency:   15.3266208879
  - # 5
    frequency:   15.3266208879
  - # 6
    frequency:   15.4316254808

- q-position: [    0.0714286,    0.0000000,    0.0714286 ]
  distance:    0.0263647
  band:
  - # 1
    frequency:    1.4416167557
  - # 2
    frequency:    1.4416167558
  - # 3
    frequency:    2.1887263682
  - # 4
    frequency:   15.2786019587
  - # 5
    frequency:   15.2786019587
  - # 6
    frequency:   15.4176883656

- q-position: [    0.0816327,    0.0000000,    0.0816327 ]
  distance:    0.0301311
  band:
  - # 1
    frequency:    1.6314445866
  - # 2
    frequency:    1.6314445867
  - # 3
    frequency:    2.4947616189
  - # 4
    frequency:   15.2254633993
  - # 5
    frequency:   15.2254633993
  - # 6
    frequency:   15.4015252908

- q-position: [    0.0918367,    0.0000000,    0.0918367 ]
  distance:    0.0338974
  band:
  - # 1
    frequency:    1.8151662127
  - # 2
    frequency:    1.8151662128
  - # 3
    frequency:    2.7984724208
  - # 4
    frequency:   15.1680286115
  - # 5
    frequency:   15.1680286116
  - # 6
    frequency:   15.3831057912

- q-position: [    0.1020408,    0.0000000,    0.1020408 ]
  distance:    0.0376638
  band:
  - # 1
    frequency:    1.9922347835
  - # 2
    frequency:    1.9922347837
  - # 3
    frequency:    3.0997429981
  - # 4
    frequency:   15.1071424240
  - # 5
    frequency:   15.1071424240
  - # 6
    frequency:   15.3623975499

- q-position: [    0.1122449,    0.0000000,    0.1122449 ]
  distance:    0.0414302
  band:
  - # 1
    frequency:    2.1621799012
  - # 2
    frequency:    2.1621799013
  - # 3
    frequency:    3.3984955872
  - # 4
    frequency:   15.0436467691
  - # 5
    frequency:   15.0436467692
  - # 6
    frequency:   15.3393666330

- q-position: [    0.1224490,    0.0000000,    0.1224490 ]
  distance:    0.0451966
  band:
  - # 1
    frequency:    2.3246137803
  - # 2
    frequency:    2.3246137805
  - # 3
    frequency:    3.6946843040
  - # 4
    frequency:   14.9783580850
  - # 5
    frequency:   14.9783580850
  - # 6
    frequency:   15.3139775337

- q-position: [    0.1326531,    0.0000000,    0.1326531 ]
  distance:    0.0489630
  band:
  - # 1
    frequency:    2.4792353746
  - # 2
    frequency:    2.4792353748
  - # 3
    frequency:    3.9882875393
  - # 4
    frequency:   14.9120474690
  - # 5
    frequency:   14.9120474690
  - # 6
    frequency:   15.2861930335

- q-position: [    0.1428571,    0.0000000,    0.1428571 ]
  distance:    0.0527294
  band:
  - # 1
    frequency:    2.6258319997
  - # 2
    frequency:    2.6258320000
  - # 3
    frequency:    4.2792994070
  - # 4
    frequency:   14.8454244493
  - # 5
    frequency:   14.8454244493
  - # 6
    frequency:   15.2559739076

- q-position: [    0.1530612,    0.0000000,    0.1530612 ]
  distance:    0.0564957
  band:
  - # 1
    frequency:    2.7642781209
  - # 2
    frequency:    2.7642781212
  - # 3
    frequency:    4.5677208231
  - # 4
    frequency:   14.7791250012
  - # 5
    frequency:   14.7791250013
  - # 6
    frequency:   15.2232785260

- q-position: [    0.1632653,    0.0000000,    0.1632653 ]
  distance:    0.0602621
  band:
  - # 1
    frequency:    2.8945311702
  - # 2
    frequency:    2.8945311704
  - # 3
    frequency:    4.8535508113
  - # 4
    frequency:   14.7137041449
  - # 5
    frequency:   14.7137041449
  - # 6
    frequency:   15.1880624105

- q-position: [    0.1734694,    0.0000000,    0.1734694 ]
  distance:    0.0640285
  band:
  - # 1
    frequency:    3.0166245093
  - # 2
    frequency:    3.0166245096
  - # 3
    frequency:    5.1367785968
  - # 4
    frequency:   14.6496331319
  - # 5
    frequency:   14.6496331319
  - # 6
    frequency:   15.1502778213

- q-position: [    0.1836735,    0.0000000,    0.1836735 ]
  distance:    0.0677949
  band:
  - # 1
    frequency:    3.1306579208
  - # 2
    frequency:    3.1306579211
  - # 3
    frequency:    5.4173769811
  - # 4
    frequency:   14.5873008961
  - # 5
    frequency:   14.5873008961
  - # 6
    frequency:   15.1098734423

- q-position: [    0.1938776,    0.0000000,    0.1938776 ]
  distance:    0.0715613
  band:
  - # 1
    frequency:    3.2367862622
  - # 2
    frequency:    3.2367862626
  - # 3
    frequency:    5.6952973855
  - # 4
    frequency:   14.5270191373
  - # 5
    frequency:   14.5270191374
  - # 6
    frequency:   15.0667942281

- q-position: [    0.2040816,    0.0000000,    0.2040816 ]
  distance:    0.0753276
  band:
  - # 1
    frequency:    3.3352071240
  - # 2
    frequency:    3.3352071243
  - # 3
    frequency:    5.9704668184
  - # 4
    frequency:   14.4690301649
  - # 5
    frequency:   14.4690301650
  - # 6
    frequency:   15.0209814582

- q-position: [    0.2142857,    0.0000000,    0.2142857 ]
  distance:    0.0790940
  band:
  - # 1
    frequency:    3.4261484515
  - # 2
    frequency:    3.4261484519
  - # 3
    frequency:    6.2427868771
  - # 4
    frequency:   14.4135164725
  - # 5
    frequency:   14.4135164726
  - # 6
    frequency:   14.9723730256

- q-position: [    0.2244898,    0.0000000,    0.2244898 ]
  distance:    0.0828604
  band:
  - # 1
    frequency:    3.5098571102
  - # 2
    frequency:    3.5098571105
  - # 3
    frequency:    6.5121347458
  - # 4
    frequency:   14.3606109695
  - # 5
    frequency:   14.3606109696
  - # 6
    frequency:   14.9209039568

- q-position: [    0.2346939,    0.0000000,    0.2346939 ]
  distance:    0.0866268
  band:
  - # 1
    frequency:    3.5865892755
  - # 2
    frequency:    3.5865892759
  - # 3
    frequency:    6.7783660154
  - # 4
    frequency:   14.3104068589
  - # 5
    frequency:   14.3104068590
  - # 6
    frequency:   14.8665071413

- q-position: [    0.2448980,    0.0000000,    0.2448980 ]
  distance:    0.0903932
  band:
  - # 1
    frequency:    3.6566033333
  - # 2
    frequency:    3.6566033337
  - # 3
    frequency:    7.0413190310
  - # 4
    frequency:   14.2629663156
  - # 5
    frequency:   14.2629663157
  - # 6
    frequency:   14.8091142186

- q-position: [    0.2551020,    0.0000000,    0.2551020 ]
  distance:    0.0941596
  band:
  - # 1
    frequency:    3.7201556914
  - # 2
    frequency:    3.7201556919
  - # 3
    frequency:    7.3008203851
  - # 4
    frequency:   14.2183273641
  - # 5
    frequency:   14.2183273642
  - # 6
    frequency:   14.7486565566

- q-position: [    0.2653061,    0.0000000,    0.2653061 ]
  distance:    0.0979259
  band:
  - # 1
    frequency:    3.7774995805
  - # 2
    frequency:    3.7774995810
  - # 3
    frequency:    7.5566911167
  - # 4
    frequency:   14.1765086465
  - # 5
    frequency:   14.1765086466
  - # 6
    frequency:   14.6850662397

- q-position: [    0.2755102,    0.0000000,    0.2755102 ]
  distance:    0.1016923
  band:
  - # 1
    frequency:    3.8288865839
  - # 2
    frequency:    3.8288865843
  - # 3
    frequency:    7.8087531577
  - # 4
    frequency:   14.1375120709
  - # 5
    frequency:   14.1375120710
  - # 6
    frequency:   14.6182769844

- q-position: [    0.2857143,    0.0000000,    0.2857143 ]
  distance:    0.1054587
  band:
  - # 1
    frequency:    3.8745703422
  - # 2
    frequency:    3.8745703427
  - # 3
    frequency:    8.0568355785
  - # 4
    frequency:   14.1013236097
  - # 5
    frequency:   14.1013236099
  - # 6
    frequency:   14.5482249017

- q-position: [    0.2959184,    0.0000000,    0.2959184 ]
  distance:    0.1092251
  band:
  - # 1
    frequency:    3.9148116487
  - # 2
    frequency:    3.9148116492
  - # 3
    frequency:    8.3007802312
  - # 4
    frequency:   14.0679127329
  - # 5
    frequency:   14.0679127330
  - # 6
    frequency:   14.4748490428

- q-position: [    0.3061224,    0.0000000,    0.3061224 ]
  distance:    0.1129915
  band:
  - # 1
    frequency:    3.9498840228
  - # 2
    frequency:    3.9498840233
  - # 3
    frequency:    8.5404464579
  - # 4
    frequency:   14.0372311000
  - # 5
    frequency:   14.0372311001
  - # 6
    frequency:   14.3980916831

- q-position: [    0.3163265,    0.0000000,    0.3163265 ]
  distance:    0.1167579
  band:
  - # 1
    frequency:    3.9800788288
  - # 2
    frequency:    3.9800788292
  - # 3
    frequency:    8.7757146211
  - # 4
    frequency:   14.0092111806
  - # 5
    frequency:   14.0092111808
  - # 6
    frequency:   14.3178983276

- q-position: [    0.3265306,    0.0000000,    0.3265306 ]
  distance:    0.1205242
  band:
  - # 1
    frequency:    4.0057090972
  - # 2
    frequency:    4.0057090976
  - # 3
    frequency:    9.0064883105
  - # 4
    frequency:   13.9837654207
  - # 5
    frequency:   13.9837654209
  - # 6
    frequency:   14.2342174474

- q-position: [    0.3367347,    0.0000000,    0.3367347 ]
  distance:    0.1242906
  band:
  - # 1
    frequency:    4.0271113873
  - # 2
    frequency:    4.0271113878
  - # 3
    frequency:    9.2326951867
  - # 4
    frequency:   13.9607864460
  - # 5
    frequency:   13.9607864462
  - # 6
    frequency:   14.1469999880

- q-position: [    0.3469388,    0.0000000,    0.3469388 ]
  distance:    0.1280570
  band:
  - # 1
    frequency:    4.0446452835
  - # 2
    frequency:    4.0446452840
  - # 3
    frequency:    9.4542865194
  - # 4
    frequency:   13.9401486021
  - # 5
    frequency:   13.9401486023
  - # 6
    frequency:   14.0561987119

- q-position: [    0.3571429,    0.0000000,    0.3571429 ]
  distance:    0.1318234
  band:
  - # 1
    frequency:    4.0586904043
  - # 2
    frequency:    4.0586904048
  - # 3
    frequency:    9.6712355656
  - # 4
    frequency:   13.9217109131
  - # 5
    frequency:   13.9217109132
  - # 6
    frequency:   13.9617674583

- q-position: [    0.3673469,    0.0000000,    0.3673469 ]
  distance:    0.1355898
  band:
  - # 1
    frequency:    4.0696410927
  - # 2
    frequency:    4.0696410931
  - # 3
    frequency:    9.8835350044
  - # 4
    frequency:   13.8636604117
  - # 5
    frequency:   13.9053213221
  - # 6
    frequency:   13.9053213222

- q-position: [    0.3775510,    0.0000000,    0.3775510 ]
  distance:    0.1393561
  band:
  - # 1
    frequency:    4.0778992118
  - # 2
    frequency:    4.0778992121
  - # 3
    frequency:   10.0911936949
  - # 4
    frequency:   13.7618314696
  - # 5
    frequency:   13.8908218905
  - # 6
    frequency:   13.8908218906

- q-position: [    0.3877551,    0.0000000,    0.3877551 ]
  distance:    0.1431225
  band:
  - # 1
    frequency:    4.0838656662
  - # 2
    frequency:    4.0838656665
  - # 3
    frequency:   10.2942330517
  - # 4
    frequency:   13.6562337922
  - # 5
    frequency:   13.8780544966
  - # 6
    frequency:   13.8780544967

- q-position: [    0.3979592,    0.0000000,    0.3979592 ]
  distance:    0.1468889
  band:
  - # 1
    frequency:    4.0879313864
  - # 2
    frequency:    4.0879313867
  - # 3
    frequency:   10.4926833296
  - # 4
    frequency:   13.5468195943
  - # 5
    frequency:   13.8668665104
  - # 6
    frequency:   13.8668665105

- q-position: [    0.4081633,    0.0000000,    0.4081633 ]
  distance:    0.1506553
  band:
  - # 1
    frequency:    4.0904685397
  - # 2
    frequency:    4.0904685400
  - # 3
    frequency:   10.6865800959
  - # 4
    frequency:   13.4335402131
  - # 5
    frequency:   13.8571159263
  - # 6
    frequency:   13.8571159264

- q-position: [    0.4183673,    0.0000000,    0.4183673 ]
  distance:    0.1544217
  band:
  - # 1
    frequency:    4.0918226720
  - # 2
    frequency:    4.0918226723
  - # 3
    frequency:   10.8759611205
  - # 4
    frequency:   13.3163464557
  - # 5
    frequency:   13.8486755078
  - # 6
    frequency:   13.8486755079

- q-position: [    0.4285714,    0.0000000,    0.4285714 ]
  distance:    0.1581881
  band:
  - # 1
    frequency:    4.0923063429
  - # 2
    frequency:    4.0923063432
  - # 3
    frequency:   11.0608638618
  - # 4
    frequency:   13.1951891923
  - # 5
    frequency:   13.8414356261
  - # 6
    frequency:   13.8414356262

- q-position: [    0.4387755,    0.0000000,    0.4387755 ]
  distance:    0.1619544
  band:
  - # 1
    frequency:    4.0921946165
  - # 2
    frequency:    4.0921946167
  - # 3
    frequency:   11.2413236597
  - # 4
    frequency:   13.0700201340
  - # 5
    frequency:   13.8353056382
  - # 6
    frequency:   13.8353056383

- q-position: [    0.4489796,    0.0000000,    0.4489796 ]
  distance:    0.1657208
  band:
  - # 1
    frequency:    4.0917225332
  - # 2
    frequency:    4.0917225334
  - # 3
    frequency:   11.4173726756
  - # 4
    frequency:   12.9407927058
  - # 5
    frequency:   13.8302138233
  - # 6
    frequency:   13.8302138234

- q-position: [    0.4591837,    0.0000000,    0.4591837 ]
  distance:    0.1694872
  band:
  - # 1
    frequency:    4.0910844452
  - # 2
    frequency:    4.0910844454
  - # 3
    frequency:   11.5890395536
  - # 4
    frequency:   12.8074629088
  - # 5
    frequency:   13.8261060700
  - # 6
    frequency:   13.8261060700

- q-position: [    0.4693878,    0.0000000,    0.4693878 ]
  distance:    0.1732536
  band:
  - # 1
    frequency:    4.0904348802
  - # 2
    frequency:    4.0904348804
  - # 3
    frequency:   11.7563497166
  - # 4
    frequency:   12.6699900626
  - # 5
    frequency:   13.8229436413
  - # 6
    frequency:   13.8229436413

- q-position: [    0.4795918,    0.0000000,    0.4795918 ]
  distance:    0.1770200
  band:
  - # 1
    frequency:    4.0898904320
  - # 2
    frequency:    4.0898904320
  - # 3
    frequency:   11.9193261663
  - # 4
    frequency:   12.5283373219
  - # 5
    frequency:   13.8207004449
  - # 6
    frequency:   13.8207004450

- q-position: [    0.4897959,    0.0000000,    0.4897959 ]
  distance:    0.1807864
  band:
  - # 1
    frequency:    4.0895320897
  - # 2
    frequency:    4.0895320898
  - # 3
    frequency:   12.0779906240
  - # 4
    frequency:   12.3824718847
  - # 5
    frequency:   13.8193602724
  - # 6
    frequency:   13.8193602724

- q-position: [    0.5000000,    0.0000000,    0.5000000 ]
  distance:    0.1845527
  band:
  - # 1
    frequency:    4.0894074184
  - # 2
    frequency:    4.0894074184
  - # 3
    frequency:   12.2323648376
  - # 4
    frequency:   12.2323648376
  - # 5
    frequency:   13.8189144507
  - # 6
    frequency:   13.8189144507

- q-position: [    0.5000000,    0.0000000,    0.5000000 ]
  distance:    0.1845527
  band:
  - # 1
    frequency:    4.0894074184
  - # 2
    frequency:    4.0894074184
  - # 3
    frequency:   12.2323648376
  - # 4
    frequency:   12.2323648376
  - # 5
    frequency:   13.8189144507
  - # 6
    frequency:   13.8189144507

- q-position: [    0.5025510,    0.0051020,    0.5025510 ]
  distance:    0.1858844
  band:
  - # 1
    frequency:    4.0895090146
  - # 2
    frequency:    4.0913867103
  - # 3
    frequency:   12.2311035051
  - # 4
    frequency:   12.2315505465
  - # 5
    frequency:   13.8189205999
  - # 6
    frequency:   13.8193283791

- q-position: [    0.5051020,    0.0102041,    0.5051020 ]
  distance:    0.1872160
  band:
  - # 1
    frequency:    4.0898132733
  - # 2
    frequency:    4.0973117110
  - # 3
    frequency:   12.2273269625
  - # 4
    frequency:   12.2291105505
  - # 5
    frequency:   13.8189391269
  - # 6
    frequency:   13.8205676191

- q-position: [    0.5076531,    0.0153061,    0.5076531 ]
  distance:    0.1885476
  band:
  - # 1
    frequency:    4.0903186141
  - # 2
    frequency:    4.1071440191
  - # 3
    frequency:   12.2210575078
  - # 4
    frequency:   12.2250534176
  - # 5
    frequency:   13.8189702695
  - # 6
    frequency:   13.8226245948

- q-position: [    0.5102041,    0.0204082,    0.5102041 ]
  distance:    0.1898792
  band:
  - # 1
    frequency:    4.0910224320
  - # 2
    frequency:    4.1208203693
  - # 3
    frequency:   12.2123320847
  - # 4
    frequency:   12.2193932176
  - # 5
    frequency:   13.8190144248
  - # 6
    frequency:   13.8254868740

- q-position: [    0.5127551,    0.0255102,    0.5127551 ]
  distance:    0.1912108
  band:
  - # 1
    frequency:    4.0919211398
  - # 2
    frequency:    4.1382537074
  - # 3
    frequency:   12.2012019550
  - # 4
    frequency:   12.2121492191
  - # 5
    frequency:   13.8190721493
  - # 6
    frequency:   13.8291374491

- q-position: [    0.5153061,    0.0306122,    0.5153061 ]
  distance:    0.1925424
  band:
  - # 1
    frequency:    4.0930102267
  - # 2
    frequency:    4.1593346376
  - # 3
    frequency:   12.1877322443
  - # 4
    frequency:   12.2033454856
  - # 5
    frequency:   13.8191441593
  - # 6
    frequency:   13.8335551090

- q-position: [    0.5178571,    0.0357143,    0.5178571 ]
  distance:    0.1938741
  band:
  - # 1
    frequency:    4.0942843311
  - # 2
    frequency:    4.1839331888
  - # 3
    frequency:   12.1720013660
  - # 4
    frequency:   12.1930103927
  - # 5
    frequency:   13.8192313320
  - # 6
    frequency:   13.8387148844

- q-position: [    0.5204082,    0.0408163,    0.5204082 ]
  distance:    0.1952057
  band:
  - # 1
    frequency:    4.0957373258
  - # 2
    frequency:    4.2119008373
  - # 3
    frequency:   12.1541003286
  - # 4
    frequency:   12.1811760868
  - # 5
    frequency:   13.8193347057
  - # 6
    frequency:   13.8445885440

- q-position: [    0.5229592,    0.0459184,    0.5229592 ]
  distance:    0.1965373
  band:
  - # 1
    frequency:    4.0973624145
  - # 2
    frequency:    4.2430727214
  - # 3
    frequency:   12.1341319340
  - # 4
    frequency:   12.1678779084
  - # 5
    frequency:   13.8194554805
  - # 6
    frequency:   13.8511451221

- q-position: [    0.5255102,    0.0510204,    0.5255102 ]
  distance:    0.1978689
  band:
  - # 1
    frequency:    4.0991522367
  - # 2
    frequency:    4.2772699786
  - # 3
    frequency:   12.1122098739
  - # 4
    frequency:   12.1531538028
  - # 5
    frequency:   13.8195950185
  - # 6
    frequency:   13.8583514542

- q-position: [    0.5280612,    0.0561224,    0.5280612 ]
  distance:    0.1992005
  band:
  - # 1
    frequency:    4.1010989785
  - # 2
    frequency:    4.3143021419
  - # 3
    frequency:   12.0884577346
  - # 4
    frequency:   12.1370437382
  - # 5
    frequency:   13.8197548436
  - # 6
    frequency:   13.8661727047

- q-position: [    0.5306122,    0.0612245,    0.5306122 ]
  distance:    0.2005321
  band:
  - # 1
    frequency:    4.1031944877
  - # 2
    frequency:    4.3539695358
  - # 3
    frequency:   12.0630079208
  - # 4
    frequency:   12.1195891479
  - # 5
    frequency:   13.8199366411
  - # 6
    frequency:   13.8745728681

- q-position: [    0.5331633,    0.0663265,    0.5331633 ]
  distance:    0.2018638
  band:
  - # 1
    frequency:    4.1054303898
  - # 2
    frequency:    4.3960656190
  - # 3
    frequency:   12.0360005087
  - # 4
    frequency:   12.1008324120
  - # 5
    frequency:   13.8201422566
  - # 6
    frequency:   13.8835152335

- q-position: [    0.5357143,    0.0714286,    0.5357143 ]
  distance:    0.2031954
  band:
  - # 1
    frequency:    4.1077982027
  - # 2
    frequency:    4.4403792316
  - # 3
    frequency:   12.0075820432
  - # 4
    frequency:   12.0808163862
  - # 5
    frequency:   13.8203736941
  - # 6
    frequency:   13.8929628032

- q-position: [    0.5382653,    0.0765306,    0.5382653 ]
  distance:    0.2045270
  band:
  - # 1
    frequency:    4.1102894476
  - # 2
    frequency:    4.4866967118
  - # 3
    frequency:   11.9779042902
  - # 4
    frequency:   12.0595839872
  - # 5
    frequency:   13.8206331138
  - # 6
    frequency:   13.9028786592

- q-position: [    0.5408163,    0.0816327,    0.5408163 ]
  distance:    0.2058586
  band:
  - # 1
    frequency:    4.1128957539
  - # 2
    frequency:    4.5348038567
  - # 3
    frequency:   11.9471229614
  - # 4
    frequency:   12.0371778353
  - # 5
    frequency:   13.8209228287
  - # 6
    frequency:   13.9132262775

- q-position: [    0.5433673,    0.0867347,    0.5433673 ]
  distance:    0.2071902
  band:
  - # 1
    frequency:    4.1156089545
  - # 2
    frequency:    4.5844877105
  - # 3
    frequency:   11.9153964242
  - # 4
    frequency:   12.0136399565
  - # 5
    frequency:   13.8212453001
  - # 6
    frequency:   13.9239697888

- q-position: [    0.5459184,    0.0918367,    0.5459184 ]
  distance:    0.2085218
  band:
  - # 1
    frequency:    4.1184211722
  - # 2
    frequency:    4.6355381683
  - # 3
    frequency:   11.8828844145
  - # 4
    frequency:   11.9890115416
  - # 5
    frequency:   13.8216031329
  - # 6
    frequency:   13.9350741902

- q-position: [    0.5484694,    0.0969388,    0.5484694 ]
  distance:    0.2098535
  band:
  - # 1
    frequency:    4.1213248921
  - # 2
    frequency:    4.6877493934
  - # 3
    frequency:   11.8497467675
  - # 4
    frequency:   11.9633327581
  - # 5
    frequency:   13.8219990690
  - # 6
    frequency:   13.9465055095

- q-position: [    0.5510204,    0.1020408,    0.5510204 ]
  distance:    0.2111851
  band:
  - # 1
    frequency:    4.1243130213
  - # 2
    frequency:    4.7409210467
  - # 3
    frequency:   11.8161421838
  - # 4
    frequency:   11.9366426122
  - # 5
    frequency:   13.8224359808
  - # 6
    frequency:   13.9582309305

- q-position: [    0.5535714,    0.1071429,    0.5535714 ]
  distance:    0.2125167
  band:
  - # 1
    frequency:    4.1273789331
  - # 2
    frequency:    4.7948593330
  - # 3
    frequency:   11.7822270468
  - # 4
    frequency:   11.9089788535
  - # 5
    frequency:   13.8229168626
  - # 6
    frequency:   13.9702188802

- q-position: [    0.5561224,    0.1122449,    0.5561224 ]
  distance:    0.2138483
  band:
  - # 1
    frequency:    4.1305164952
  - # 2
    frequency:    4.8493778697
  - # 3
    frequency:   11.7481543075
  - # 4
    frequency:   11.8803779179
  - # 5
    frequency:   13.8234448219
  - # 6
    frequency:   13.9824390888

- q-position: [    0.5586735,    0.1173469,    0.5586735 ]
  distance:    0.2151799
  band:
  - # 1
    frequency:    4.1337200816
  - # 2
    frequency:    4.9042983866
  - # 3
    frequency:   11.7140724533
  - # 4
    frequency:   11.8508749023
  - # 5
    frequency:   13.8240230697
  - # 6
    frequency:   13.9948626225

- q-position: [    0.5612245,    0.1224490,    0.5612245 ]
  distance:    0.2165115
  band:
  - # 1
    frequency:    4.1369845682
  - # 2
    frequency:    4.9594512641
  - # 3
    frequency:   11.6801245739
  - # 4
    frequency:   11.8205035659
  - # 5
    frequency:   13.8246549100
  - # 6
    frequency:   14.0074618980

- q-position: [    0.5637755,    0.1275510,    0.5637755 ]
  distance:    0.2178432
  band:
  - # 1
    frequency:    4.1403053119
  - # 2
    frequency:    5.0146759193
  - # 3
    frequency:   11.6464475387
  - # 4
    frequency:   11.7892963523
  - # 5
    frequency:   13.8253437285
  - # 6
    frequency:   14.0202106812

- q-position: [    0.5663265,    0.1326531,    0.5663265 ]
  distance:    0.2191748
  band:
  - # 1
    frequency:    4.1436781143
  - # 2
    frequency:    5.0698210499
  - # 3
    frequency:   11.6131712975
  - # 4
    frequency:   11.7572844283
  - # 5
    frequency:   13.8260929810
  - # 6
    frequency:   14.0330840741

- q-position: [    0.5688776,    0.1377551,    0.5688776 ]
  distance:    0.2205064
  band:
  - # 1
    frequency:    4.1470991702
  - # 2
    frequency:    5.1247447435
  - # 3
    frequency:   11.5804183129
  - # 4
    frequency:   11.7244977340
  - # 5
    frequency:   13.8269061815
  - # 6
    frequency:   14.0460584929

- q-position: [    0.5714286,    0.1428571,    0.5714286 ]
  distance:    0.2218380
  band:
  - # 1
    frequency:    4.1505650037
  - # 2
    frequency:    5.1793144625
  - # 3
    frequency:   11.5483031331
  - # 4
    frequency:   11.6909650407
  - # 5
    frequency:   13.8277868902
  - # 6
    frequency:   14.0591116406

- q-position: [    0.5739796,    0.1479592,    0.5739796 ]
  distance:    0.2231696
  band:
  - # 1
    frequency:    4.1540723910
  - # 2
    frequency:    5.2334069134
  - # 3
    frequency:   11.5169321080
  - # 4
    frequency:   11.6567140136
  - # 5
    frequency:   13.8287387010
  - # 6
    frequency:   14.0722224750

- q-position: [    0.5765306,    0.1530612,    0.5765306 ]
  distance:    0.2245013
  band:
  - # 1
    frequency:    4.1576182747
  - # 2
    frequency:    5.2869078118
  - # 3
    frequency:   11.4864032516
  - # 4
    frequency:   11.6217712760
  - # 5
    frequency:   13.8297652295
  - # 6
    frequency:   14.0853711735

- q-position: [    0.5790816,    0.1581633,    0.5790816 ]
  distance:    0.2258329
  band:
  - # 1
    frequency:    4.1611996688
  - # 2
    frequency:    5.3397115507
  - # 3
    frequency:   11.4568062463
  - # 4
    frequency:   11.5861624726
  - # 5
    frequency:   13.8308701017
  - # 6
    frequency:   14.0985390970

- q-position: [    0.5816327,    0.1632653,    0.5816327 ]
  distance:    0.2271645
  band:
  - # 1
    frequency:    4.1648135585
  - # 2
    frequency:    5.3917207872
  - # 3
    frequency:   11.4282225871
  - # 4
    frequency:   11.5499123296
  - # 5
    frequency:   13.8320569425
  - # 6
    frequency:   14.1117087515

- q-position: [    0.5841837,    0.1683673,    0.5841837 ]
  distance:    0.2284961
  band:
  - # 1
    frequency:    4.1684567970
  - # 2
    frequency:    5.4428459565
  - # 3
    frequency:   11.4007258536
  - # 4
    frequency:   11.5130447113
  - # 5
    frequency:   13.8333293650
  - # 6
    frequency:   14.1248637488

- q-position: [    0.5867347,    0.1734694,    0.5867347 ]
  distance:    0.2298277
  band:
  - # 1
    frequency:    4.1721260000
  - # 2
    frequency:    5.4930047292
  - # 3
    frequency:   11.3743820997
  - # 4
    frequency:   11.4755826703
  - # 5
    frequency:   13.8346909615
  - # 6
    frequency:   14.1379887668

- q-position: [    0.5892857,    0.1785714,    0.5892857 ]
  distance:    0.2311593
  band:
  - # 1
    frequency:    4.1758174430
  - # 2
    frequency:    5.5421214247
  - # 3
    frequency:   11.3492503450
  - # 4
    frequency:   11.4375484923
  - # 5
    frequency:   13.8361452939
  - # 6
    frequency:   14.1510695076

- q-position: [    0.5918367,    0.1836735,    0.5918367 ]
  distance:    0.2324910
  band:
  - # 1
    frequency:    4.1795269609
  - # 2
    frequency:    5.5901263976
  - # 3
    frequency:   11.3253831505
  - # 4
    frequency:   11.3989637336
  - # 5
    frequency:   13.8376958865
  - # 6
    frequency:   14.1640926549

- q-position: [    0.5943878,    0.1887755,    0.5943878 ]
  distance:    0.2338226
  band:
  - # 1
    frequency:    4.1832498551
  - # 2
    frequency:    5.6369554122
  - # 3
    frequency:   11.3028272563
  - # 4
    frequency:   11.3598492519
  - # 5
    frequency:   13.8393462194
  - # 6
    frequency:   14.1770458295

- q-position: [    0.5969388,    0.1938776,    0.5969388 ]
  distance:    0.2351542
  band:
  - # 1
    frequency:    4.1869808074
  - # 2
    frequency:    5.6825490232
  - # 3
    frequency:   11.2816242620
  - # 4
    frequency:   11.3202252305
  - # 5
    frequency:   13.8410997230
  - # 6
    frequency:   14.1899175438

- q-position: [    0.5994898,    0.1989796,    0.5994898 ]