1000 
1    

1    
  0.0100000000000000  -0.0000000000000443   0.0000000000000406
  -0.1338607329   -0.0000000279    0.0000000307
  -0.0042158927   -0.0010136175   -0.0010134999
  -0.0010249378   -0.0002365191   -0.0002377659
  -0.0003055866   -0.0000572122   -0.0000579902
  -0.0001040069   -0.0000154948   -0.0000157402
  -0.0001182300    0.0000004833   -0.0000001580
  -0.0001040228    0.0000163239    0.0000154985
  -0.0003056563    0.0000594744    0.0000573850
  -0.0010248289    0.0002366046    0.0002377445
  -0.0042158569    0.0010135801    0.0010135441
   0.0016930821    0.0010627701    0.0015811559
   0.0001529075   -0.0002585942    0.0001165870
   0.0000250221   -0.0000634075    0.0000456371
   0.0000016315   -0.0000209679    0.0000129979
  -0.0000065595   -0.0000158361    0.0000024452
  -0.0000065487   -0.0000024883    0.0000156301
   0.0000017763   -0.0000130017    0.0000204782
   0.0000255240   -0.0000459134    0.0000618099
   0.0001525042   -0.0001167464    0.0002590070
   0.0016930869   -0.0015810776   -0.0010627788
  -0.0000051605    0.0002325182    0.0001085581
   0.0000044757   -0.0000876792   -0.0000001844
  -0.0000005013   -0.0000255571    0.0000032817
  -0.0000066461   -0.0000170647   -0.0000022311
  -0.0000050773   -0.0000046533    0.0000045078
  -0.0000066362    0.0000023144    0.0000168478
  -0.0000004424   -0.0000032145    0.0000253149
   0.0000045375    0.0000004699    0.0000876151
  -0.0000052636   -0.0001089326   -0.0002323152
  -0.0000178563   -0.0001144307    0.0001142738
  -0.0000007353    0.0000571803    0.0000341714
   0.0000010330   -0.0000281978   -0.0000024490
  -0.0000012004   -0.0000175766   -0.0000023324
   0.0000002626   -0.0000073847    0.0000028053
   0.0000003012   -0.0000029536    0.0000071984
  -0.0000012028    0.0000023418    0.0000174511
   0.0000010376    0.0000024875    0.0000281800
  -0.0000007531   -0.0000342071   -0.0000572239
  -0.0000055902    0.0000016396    0.0000432260
  -0.0000057179   -0.0000432771   -0.0000013592
   0.0000027081    0.0000156716    0.0000112197
  -0.0000004798   -0.0000166183   -0.0000024346
   0.0000024396   -0.0000065831    0.0000014463
   0.0000016848   -0.0000040847    0.0000038852
   0.0000024509   -0.0000016282    0.0000064185
  -0.0000004714    0.0000024355    0.0000166142
   0.0000027684   -0.0000112631   -0.0000157393
  -0.0000017445    0.0000029095    0.0000126828
   0.0000018916   -0.0000030718    0.0000031246
  -0.0000018001   -0.0000126263   -0.0000027382
   0.0000002916    0.0000000527   -0.0000001036
  -0.0000021292    0.0000022796    0.0000021097
   0.0000007757   -0.0000026325    0.0000024233
   0.0000007499   -0.0000025925    0.0000025435
  -0.0000021222   -0.0000022068   -0.0000022687
   0.0000003305    0.0000000212   -0.0000000246
  -0.0000021012    0.0000022235    0.0000023492
   0.0000008266    0.0000026261   -0.0000025375
   0.0000007764    0.0000026890   -0.0000024633
  -0.0000021387   -0.0000022676   -0.0000021038
   0.0000009010   -0.0000148046    0.0000116546
  -0.0000032580   -0.0000014496    0.0000073789
   0.0000001871   -0.0000092836    0.0000091903
  -0.0000031922   -0.0000074772    0.0000014505
   0.0000009667   -0.0000118773    0.0000148642
  -0.0000019653   -0.0000020631    0.0000156759
   0.0000015235   -0.0000011815    0.0000039725
   0.0000010385   -0.0000022853    0.0000024530
   0.0000014806   -0.0000039094    0.0000012226
  -0.0000019865   -0.0000155326    0.0000020625
  -0.0000039392   -0.0000545699    0.0000347903
  -0.0000072179   -0.0000063871    0.0000246031
  -0.0000071025   -0.0000246652    0.0000062461
  -0.0000039727   -0.0000351402    0.0000548222
  -0.0000012408   -0.0000072611    0.0000204015
  -0.0000035048   -0.0000015844    0.0000161938
  -0.0000010951   -0.0000024651    0.0000056966
  -0.0000010785   -0.0000055982    0.0000024993
  -0.0000035405   -0.0000160996    0.0000014981
  -0.0000012063   -0.0000203172    0.0000071699
  -0.0000101315   -0.0002276294    0.0001084024
  -0.0000167678   -0.0000395543    0.0000399676
  -0.0000101986   -0.0001088464    0.0002276383
   0.0000026929   -0.0000252113    0.0000637781
  -0.0000030089   -0.0000085954    0.0000248675
  -0.0000087848   -0.0000013400    0.0000161806
  -0.0000067521   -0.0000045928    0.0000045838
  -0.0000088155   -0.0000161533    0.0000013461
  -0.0000029862   -0.0000247135    0.0000084734
   0.0000027927   -0.0000635926    0.0000248512
   0.0016702110   -0.0010590601    0.0015716480
   0.0016701977   -0.0015716998    0.0010590771
   0.0001534043   -0.0000423488    0.0002647221
   0.0000238979   -0.0000063874    0.0000862326
  -0.0000002588   -0.0000012387    0.0000276845
  -0.0000080289    0.0000031622    0.0000155072
  -0.0000080397   -0.0000155382   -0.0000030639
  -0.0000001594   -0.0000274978    0.0000012102
   0.0000241431   -0.0000862542    0.0000063965
   0.0001534045   -0.0002645595    0.0000422918
   0.0016930898    0.0015810235    0.0010628214
   0.0001524935    0.0001160714   -0.0002587281
   0.0000252194    0.0000460206   -0.0000626643
   0.0000017194    0.0000132147   -0.0000206506
  -0.0000065979    0.0000027358   -0.0000158441
  -0.0000065808    0.0000161774   -0.0000026049
   0.0000015636    0.0000215331   -0.0000130819
   0.0000247508    0.0000648939   -0.0000454215
   0.0001529637    0.0002588868   -0.0001161218
   0.0016930938   -0.0010628217   -0.0015811184
  -0.0000151777    0.0000406666    0.0000400792
   0.0000258055   -0.0000026713   -0.0000016766
   0.0000048469   -0.0000053700   -0.0000051795
  -0.0000046415   -0.0000054040   -0.0000053904
  -0.0000051822    0.0000000932   -0.0000000212
  -0.0000046418    0.0000055664    0.0000052737
   0.0000048954    0.0000054049    0.0000050938
   0.0000256788    0.0000021211    0.0000026822
  -0.0000151825   -0.0000396336   -0.0000404848
   0.0000243407   -0.0000000187    0.0000000211
  -0.0000044918    0.0000068768    0.0000243448
   0.0000052904   -0.0000055679   -0.0000028563
   0.0000007227   -0.0000069363   -0.0000036603
  -0.0000000846   -0.0000031578   -0.0000008072
  -0.0000000915    0.0000007495    0.0000030132
   0.0000006895    0.0000037373    0.0000067853
   0.0000052747    0.0000029343    0.0000053645
  -0.0000045527   -0.0000240405   -0.0000064517
   0.0000068027    0.0000082879    0.0000177559
   0.0000068105   -0.0000179567   -0.0000083724
  -0.0000020140    0.0000009865    0.0000064079
   0.0000025400   -0.0000054314   -0.0000022046
   0.0000013594   -0.0000035811   -0.0000010513
   0.0000015634   -0.0000011660    0.0000010193
   0.0000014363    0.0000010782    0.0000033631
   0.0000025397    0.0000023142    0.0000053100
  -0.0000019571   -0.0000062554   -0.0000010331
   0.0000011209    0.0000017171    0.0000050679
   0.0000029356   -0.0000019819    0.0000020678
   0.0000011433   -0.0000051154   -0.0000016090
  -0.0000025114   -0.0000035039    0.0000014889
   0.0000018608   -0.0000008886   -0.0000008596
   0.0000012631   -0.0000003855   -0.0000004452
   0.0000012956    0.0000002758    0.0000002286
   0.0000018988    0.0000007959    0.0000007964
  -0.0000024455   -0.0000014431    0.0000034542
   0.0000014477    0.0000006583    0.0000028363
   0.0000007695   -0.0000000867    0.0000011843
   0.0000007818   -0.0000011397    0.0000002198
   0.0000014129   -0.0000028787   -0.0000005507
  -0.0000019848    0.0000155415   -0.0000021038
   0.0000015689    0.0000038762   -0.0000013005
   0.0000009556    0.0000023054   -0.0000024452
   0.0000015107    0.0000011877   -0.0000039506
  -0.0000020332    0.0000021152   -0.0000155695
   0.0000009548    0.0000119103   -0.0000148778
  -0.0000031727    0.0000076057   -0.0000014332
   0.0000001378    0.0000093152   -0.0000091942
  -0.0000032407    0.0000015223   -0.0000074055
   0.0000009048    0.0000148008   -0.0000118023
  -0.0000016984    0.0000275513   -0.0000015799
   0.0000028430    0.0000045542   -0.0000018358
   0.0000027993    0.0000016659   -0.0000046467
  -0.0000016918    0.0000014162   -0.0000276610
   0.0000075023   -0.0000000936    0.0000000914
  -0.0000017014   -0.0000015016    0.0000278728
   0.0000028446   -0.0000017574    0.0000046807
   0.0000027368   -0.0000047236    0.0000019550
  -0.0000016849   -0.0000277118    0.0000016299
   0.0000074690   -0.0000001183   -0.0000000257
   0.0000011608    0.0000870891    0.0000006302
   0.0000227017    0.0000012457   -0.0000010314
   0.0000011767   -0.0000008672   -0.0000875142
   0.0000147893    0.0000004498   -0.0000038737
   0.0000088395    0.0000013772    0.0000040983
  -0.0000033987    0.0000043034    0.0000245984
   0.0000019970   -0.0000042625    0.0000041684
  -0.0000034640   -0.0000246103   -0.0000041835
   0.0000088699   -0.0000041230   -0.0000013981
   0.0000148330    0.0000037466   -0.0000006470
   0.0001498906    0.0002586226    0.0001178031
   0.0001494888   -0.0001183466   -0.0002588197
   0.0000597786    0.0000081672   -0.0000082718
   0.0000219802    0.0000024949    0.0000045257
   0.0000087787    0.0000018263    0.0000038207
  -0.0000001788    0.0000139490    0.0000199980
  -0.0000002874   -0.0000202598   -0.0000136829
   0.0000088500   -0.0000037311   -0.0000018017
   0.0000220342   -0.0000046272   -0.0000025867
   0.0000596565    0.0000085657   -0.0000086876
  -0.0042046339    0.0010015089   -0.0010015981
   0.0002009765    0.0000000565   -0.0000032873
   0.0000607660    0.0000165577    0.0000078933
   0.0000162991    0.0000049670    0.0000038034
   0.0000017540    0.0000030893   -0.0000000632
  -0.0001044330   -0.0000152067    0.0000153973
   0.0000018134    0.0000001989   -0.0000030582
   0.0000163886   -0.0000040521   -0.0000048639
   0.0000608277   -0.0000078115   -0.0000181790
   0.0002014054    0.0000036618   -0.0000002158
  -0.0000052761    0.0001093403    0.0002323428
   0.0000045501   -0.0000004852   -0.0000871706
  -0.0000004807    0.0000033225   -0.0000252852
  -0.0000066622   -0.0000021207   -0.0000170087
  -0.0000051051    0.0000047635   -0.0000045582
  -0.0000066552    0.0000172524    0.0000021377
  -0.0000005539    0.0000257196   -0.0000032988
   0.0000045825    0.0000868753    0.0000004914
  -0.0000052367   -0.0002321998   -0.0001096710
  -0.0000179207    0.0001141813   -0.0001140368
  -0.0000045157    0.0000243180    0.0000064640
   0.0000052844   -0.0000030746   -0.0000053264
   0.0000007207   -0.0000037044   -0.0000068007
  -0.0000000722   -0.0000007287   -0.0000031063
  -0.0000001207    0.0000031943    0.0000006962
   0.0000007219    0.0000069921    0.0000035923
   0.0000051369    0.0000055825    0.0000029752
  -0.0000045895   -0.0000062931   -0.0000241640
   0.0000068738    0.0000179038    0.0000085702
   0.0000068336   -0.0000086570   -0.0000177700
   0.0000011267    0.0000081465    0.0000082115
   0.0000015508   -0.0000039122   -0.0000037733
   0.0000008522   -0.0000023512   -0.0000022681
   0.0000008586    0.0000000176   -0.0000000277
   0.0000008831    0.0000023499    0.0000022145
   0.0000015616    0.0000038731    0.0000037711
   0.0000011416   -0.0000080897   -0.0000082381
   0.0000020491    0.0000034132    0.0000034179
   0.0000039957   -0.0000000215    0.0000000027
   0.0000020236   -0.0000034974   -0.0000033443
  -0.0000000800    0.0000009240    0.0000012212
   0.0000006905   -0.0000011499   -0.0000011281
   0.0000010710   -0.0000003907   -0.0000005011
   0.0000010712    0.0000004486    0.0000002687
   0.0000006914    0.0000011789    0.0000010250
  -0.0000001001   -0.0000011308   -0.0000010032
   0.0000003158    0.0000016615    0.0000022136
   0.0000003318    0.0000004611    0.0000011992
   0.0000002861   -0.0000011820   -0.0000003835
   0.0000003094   -0.0000022592   -0.0000015510
   0.0000006822    0.0000047157    0.0000011599
   0.0000003171    0.0000021600   -0.0000006671
   0.0000003364    0.0000013958   -0.0000014399
   0.0000003102    0.0000006660   -0.0000022977
   0.0000006392   -0.0000011260   -0.0000047991
  -0.0000037090   -0.0000015008    0.0000141729
  -0.0000007188   -0.0000002086    0.0000056684
   0.0000003071   -0.0000027306    0.0000027889
  -0.0000007226   -0.0000056899    0.0000002677
  -0.0000037418   -0.0000142345    0.0000016174
  -0.0000035091    0.0000161676   -0.0000016384
  -0.0000010574    0.0000056613   -0.0000025817
  -0.0000010629    0.0000025002   -0.0000057451
  -0.0000035562    0.0000016580   -0.0000161979
  -0.0000013044    0.0000074162   -0.0000204390
  -0.0000039725    0.0000352638   -0.0000549549
  -0.0000071327    0.0000250134   -0.0000063764
  -0.0000070788    0.0000065680   -0.0000246854
  -0.0000039391    0.0000549546   -0.0000350251
  -0.0000012111    0.0000204014   -0.0000071958
  -0.0000034571    0.0000247461    0.0000041317
   0.0000019640    0.0000041779   -0.0000043282
  -0.0000034152   -0.0000043104   -0.0000245902
   0.0000088239   -0.0000015432   -0.0000039877
   0.0000148047   -0.0000008054    0.0000042080
   0.0000011947    0.0000006027    0.0000878254
   0.0000225273   -0.0000017442    0.0000019958
   0.0000012919   -0.0000877427   -0.0000005329
   0.0000148189   -0.0000041507    0.0000006851
   0.0000088585    0.0000039419    0.0000013935
   0.0000222253    0.0000639873    0.0000465386
   0.0000227667   -0.0000472469   -0.0000620344
   0.0000214831   -0.0000031548   -0.0000041647
   0.0000161093   -0.0000001118    0.0000000972
   0.0000215283    0.0000028533    0.0000040756
   0.0000226900    0.0000471841    0.0000615137
   0.0000222513   -0.0000628569   -0.0000464353
   0.0000215034   -0.0000041783   -0.0000027452
   0.0000161476   -0.0000001160    0.0000000287
   0.0000214986    0.0000039739    0.0000027607
  -0.0010229525    0.0002363691   -0.0002380188
   0.0000600350   -0.0000198422    0.0000086356
   0.0000328884   -0.0000003924   -0.0000000340
   0.0000189652    0.0000004854   -0.0000000788
   0.0000157507    0.0000054201   -0.0000037053
  -0.0003064100   -0.0000564596    0.0000568172
   0.0000158630    0.0000042895   -0.0000051700
   0.0000189793    0.0000001017   -0.0000005178
   0.0000329628   -0.0000003412    0.0000001864
   0.0000599527   -0.0000085246    0.0000198989
   0.0001539160    0.0000399046    0.0002640555
   0.0000614171   -0.0000102416   -0.0000073998
   0.0000236506    0.0000021298   -0.0000044942
   0.0000103627    0.0000013356   -0.0000041806
   0.0000008754   -0.0000011532   -0.0000280612
   0.0000009440    0.0000282422    0.0000013529
   0.0000104232    0.0000043612   -0.0000013320
   0.0000236464    0.0000043733   -0.0000021579
   0.0000613015    0.0000076330    0.0000097015
   0.0001539135   -0.0002641708   -0.0000404827
  -0.0000007121    0.0000343815    0.0000570613
   0.0000010630   -0.0000025835   -0.0000279541
  -0.0000012292   -0.0000023115   -0.0000174187
   0.0000002503    0.0000029790   -0.0000071754
   0.0000002453    0.0000074070   -0.0000028551
  -0.0000012722    0.0000176677    0.0000022437
   0.0000010442    0.0000279385    0.0000025825
  -0.0000007879   -0.0000568323   -0.0000344212
  -0.0000057293    0.0000430702    0.0000015254
  -0.0000056496   -0.0000016127   -0.0000431000
  -0.0000019368    0.0000063276    0.0000010423
   0.0000026053   -0.0000023391   -0.0000052868
   0.0000013957   -0.0000010820   -0.0000034282
   0.0000015296    0.0000011659   -0.0000011118
   0.0000013708    0.0000035240    0.0000010145
   0.0000024884    0.0000054308    0.0000021836
  -0.0000020234   -0.0000009225   -0.0000064212
   0.0000011436    0.0000050498    0.0000016322
   0.0000029670    0.0000019644   -0.0000020208
   0.0000011726   -0.0000017749   -0.0000049777
  -0.0000001441    0.0000011224    0.0000010144
   0.0000007189   -0.0000012121   -0.0000010522
   0.0000010698   -0.0000004574   -0.0000003845
   0.0000010815    0.0000003874    0.0000004463
   0.0000006627    0.0000011282    0.0000011003
  -0.0000001479   -0.0000008968   -0.0000012435
   0.0000002822    0.0000021894    0.0000016093
   0.0000002786    0.0000011739    0.0000004497
   0.0000002975   -0.0000004801   -0.0000011466
   0.0000003442   -0.0000016807   -0.0000021387
  -0.0000002849    0.0000027332    0.0000028095
   0.0000002214    0.0000006576    0.0000007115
  -0.0000000308    0.0000000464   -0.0000000273
   0.0000001930   -0.0000005978   -0.0000007135
  -0.0000003192   -0.0000026959   -0.0000028081
  -0.0000004811    0.0000048649    0.0000047308
   0.0000007145    0.0000033223    0.0000032964
   0.0000020595    0.0000000067    0.0000000044
   0.0000007456   -0.0000033170   -0.0000032101
  -0.0000004440   -0.0000048809   -0.0000047259
  -0.0000018964    0.0000062845    0.0000028520
  -0.0000018340    0.0000024854   -0.0000001825
  -0.0000018538    0.0000001710   -0.0000025827
  -0.0000019566   -0.0000028234   -0.0000063636
   0.0000031667   -0.0000017040   -0.0000039876
  -0.0000087596    0.0000001335    0.0000449737
   0.0000037783   -0.0000074197    0.0000182654
   0.0000037847   -0.0000183889    0.0000074002
  -0.0000088454   -0.0000451356   -0.0000000380
   0.0000031650    0.0000039972    0.0000017285
  -0.0000088028    0.0000162659   -0.0000014574
  -0.0000067378    0.0000046430   -0.0000047385
  -0.0000088078    0.0000014915   -0.0000163735
  -0.0000030545    0.0000087348   -0.0000248958
   0.0000026330    0.0000255175   -0.0000639109
  -0.0000101836    0.0001092455   -0.0002279675
  -0.0000169613    0.0000406962   -0.0000400855
  -0.0000100364    0.0002280851   -0.0001091233
   0.0000027741    0.0000637938   -0.0000249640
  -0.0000029761    0.0000248051   -0.0000086054
  -0.0000003420    0.0000207081    0.0000136300
  -0.0000001616   -0.0000138833   -0.0000201521
   0.0000087899   -0.0000019493   -0.0000037067
   0.0000219752   -0.0000027315   -0.0000043242
   0.0000599163   -0.0000094056    0.0000082063
   0.0001495898    0.0001174880    0.0002590531
   0.0001500322   -0.0002586784   -0.0001173785
   0.0000597805   -0.0000084198    0.0000092313
   0.0000220409    0.0000043342    0.0000026140
   0.0000088201    0.0000035929    0.0000017334
  -0.0003065507    0.0000587284   -0.0000576299
   0.0000158164   -0.0000059589    0.0000043568
   0.0000189676   -0.0000006340    0.0000002795
   0.0000328727    0.0000001140    0.0000003516
   0.0000600434    0.0000176662   -0.0000086231
  -0.0010233669   -0.0002359466    0.0002372694
   0.0000601022    0.0000088114   -0.0000190980
   0.0000329157   -0.0000002057   -0.0000000615
   0.0000189571   -0.0000003850    0.0000004936
   0.0000158441   -0.0000047103    0.0000051766
   0.0000248195    0.0000058631    0.0000873088
   0.0000234656   -0.0000030270    0.0000052998
   0.0000178599   -0.0000000911    0.0000001162
   0.0000234083    0.0000028590   -0.0000050379
   0.0000248146   -0.0000053594   -0.0000873518
   0.0000249781    0.0000874848    0.0000056242
   0.0000234590    0.0000052390   -0.0000027125
   0.0000178551   -0.0000001414    0.0000000320
   0.0000234964   -0.0000055572    0.0000027123
   0.0000250805   -0.0000875988   -0.0000057912
   0.0000047490    0.0000246187    0.0000646309
   0.0000175541   -0.0000014727   -0.0000033245
   0.0000117015    0.0000009992   -0.0000046414
  -0.0000006683   -0.0000085775   -0.0000259492
   0.0000039635    0.0000060200   -0.0000056990
  -0.0000006690    0.0000260592    0.0000087009
   0.0000117203    0.0000047289   -0.0000009852
   0.0000174924    0.0000032095    0.0000011308
   0.0000048502   -0.0000646715   -0.0000244014
   0.0000227567   -0.0000054326    0.0000047960
   0.0000027371    0.0000112676    0.0000157281
  -0.0000004494   -0.0000023902   -0.0000164818
   0.0000024386    0.0000015994   -0.0000064025
   0.0000017228    0.0000040788   -0.0000039104
   0.0000024204    0.0000065823   -0.0000014944
  -0.0000004857    0.0000165728    0.0000023871
   0.0000027163   -0.0000156773   -0.0000113584
  -0.0000018096    0.0000125634    0.0000028271
   0.0000018726    0.0000030617   -0.0000031413
  -0.0000017216   -0.0000029535   -0.0000125894
  -0.0000024732    0.0000014708   -0.0000033736
   0.0000018689   -0.0000008849   -0.0000007426
   0.0000012683   -0.0000003369   -0.0000002561
   0.0000012830    0.0000003722    0.0000004078
   0.0000018198    0.0000008626    0.0000008080
  -0.0000024893    0.0000035059   -0.0000015325
   0.0000013978    0.0000028302    0.0000005287
   0.0000007469    0.0000010802   -0.0000001647
   0.0000007950    0.0000000923   -0.0000011371
   0.0000013916   -0.0000007273   -0.0000027523
   0.0000006579    0.0000011204    0.0000048141
   0.0000003882   -0.0000006440    0.0000022480
   0.0000003203   -0.0000013477    0.0000014364
   0.0000003174   -0.0000021526    0.0000005582
   0.0000006546   -0.0000047719   -0.0000012563
  -0.0000037374    0.0000142019   -0.0000015794
  -0.0000006835    0.0000056375   -0.0000002641
   0.0000002854    0.0000026831   -0.0000027226
  -0.0000007068    0.0000001540   -0.0000055696
  -0.0000037046    0.0000014943   -0.0000140876
  -0.0000019093    0.0000028956    0.0000063382
  -0.0000018452   -0.0000001475    0.0000024927
  -0.0000018651   -0.0000024281    0.0000001352
  -0.0000019551   -0.0000062540   -0.0000029606
   0.0000031758   -0.0000041603   -0.0000017197
  -0.0000088700    0.0000450208    0.0000001108
   0.0000037212    0.0000181562   -0.0000073531
   0.0000036517    0.0000070365   -0.0000179370
  -0.0000087381   -0.0000001265   -0.0000448752
   0.0000032031    0.0000015902    0.0000040649
  -0.0000070534    0.0000046003    0.0000046019
  -0.0000071767    0.0000000507   -0.0000000681
  -0.0000070607   -0.0000045460   -0.0000046582
   0.0000018300   -0.0000053681   -0.0000052498
   0.0000204059   -0.0000039238   -0.0000034528
  -0.0000211321    0.0001162017    0.0001161819
   0.0000211615   -0.0000000237    0.0000000406
  -0.0000211184   -0.0001165101   -0.0001159348
   0.0000204247    0.0000037280    0.0000035508
   0.0000018274    0.0000052377    0.0000053112
  -0.0000080563    0.0000158136    0.0000029205
  -0.0000080275   -0.0000029597   -0.0000157159
  -0.0000002481    0.0000014362   -0.0000277306
   0.0000238940    0.0000069145   -0.0000862977
   0.0001533733    0.0000423163   -0.0002645722
   0.0016701928    0.0015716756   -0.0010590201
   0.0016701960    0.0010590152   -0.0015715691
   0.0001534637    0.0002648477   -0.0000425831
   0.0000240856    0.0000861327   -0.0000065117
  -0.0000001768    0.0000275832   -0.0000013101
  -0.0001044971    0.0000159624   -0.0000157014
   0.0000017589   -0.0000034031    0.0000002040
   0.0000162887   -0.0000055279   -0.0000033370
   0.0000608150   -0.0000186434   -0.0000081573
   0.0002010011    0.0000000365    0.0000032724
  -0.0042046490   -0.0010015615    0.0010016385
   0.0002012472   -0.0000031750    0.0000001031
   0.0000607938    0.0000080065    0.0000191527
   0.0000163011    0.0000035117    0.0000049723
   0.0000017714   -0.0000004069    0.0000030016
   0.0000008870    0.0000013514    0.0000280040
   0.0000103975   -0.0000014587    0.0000043163
   0.0000236815   -0.0000023534    0.0000044315
   0.0000614349    0.0000090114    0.0000074233
   0.0001538513   -0.0000399602   -0.0002641282
   0.0001537818    0.0002645286    0.0000401647
   0.0000613372   -0.0000076454   -0.0000092402
   0.0000236453   -0.0000047742    0.0000022793
   0.0000104079   -0.0000045003    0.0000012570
   0.0000009314   -0.0000281171   -0.0000014528
  -0.0000006705    0.0000087585    0.0000258924
   0.0000117389   -0.0000011222    0.0000047542
   0.0000174910    0.0000011604    0.0000036864
   0.0000047922   -0.0000243628   -0.0000648587
   0.0000227416    0.0000051377   -0.0000046031
   0.0000048826    0.0000648863    0.0000242326
   0.0000175207   -0.0000036442   -0.0000011209
   0.0000117027   -0.0000049506    0.0000009825
  -0.0000006325   -0.0000260549   -0.0000087414
   0.0000040033   -0.0000061398    0.0000057941
   0.0000012906    0.0000070806    0.0000215792
   0.0000103012   -0.0000001193    0.0000001148
   0.0000012373   -0.0000070231   -0.0000216367
   0.0000058756    0.0000026477   -0.0000055029
   0.0000058465    0.0000057401   -0.0000025139
   0.0000012565    0.0000216821    0.0000070393
   0.0000102556   -0.0000001282   -0.0000000044
   0.0000012740   -0.0000216589   -0.0000070980
   0.0000058575   -0.0000059183    0.0000024994
   0.0000058769   -0.0000028003    0.0000055651
   0.0330278599    0.0233445176    0.0233446217
   0.0017907432   -0.0005387298   -0.0005391451
   0.0005504967   -0.0001117011   -0.0001093173
   0.0001679306   -0.0000308067   -0.0000294683
   0.0000688099   -0.0000016990   -0.0000012320
   0.0000688185    0.0000009764    0.0000013639
   0.0001678763    0.0000294140    0.0000297793
   0.0005503896    0.0001084560    0.0001097530
   0.0017908297    0.0005380253    0.0005399555
   0.0330278698   -0.0233445679   -0.0233445695
   0.0001647381   -0.0005337866    0.0002277629
  -0.0000269768    0.0001739568   -0.0000349425
   0.0000010791    0.0000446817   -0.0000001795
   0.0000101975    0.0000185890    0.0000000136
   0.0000072649    0.0000050756   -0.0000051904
   0.0000102390   -0.0000000300   -0.0000187452
   0.0000011898    0.0000002321   -0.0000448592
  -0.0000267155    0.0000344773   -0.0001735525
   0.0001645627   -0.0002275862    0.0005337723
   0.0000086620    0.0002507924   -0.0002507415
   0.0000368992   -0.0001086913   -0.0000104737
  -0.0000154101    0.0000450338   -0.0000180542
   0.0000047746    0.0000185038   -0.0000034805
   0.0000036676    0.0000060690   -0.0000045644
   0.0000036873    0.0000045051   -0.0000062253
   0.0000048105    0.0000034946   -0.0000186282
  -0.0000153349    0.0000183159   -0.0000448747
   0.0000368209    0.0000112761    0.0001078018
  -0.0000243981    0.0000212161   -0.0000960004
  -0.0000250769    0.0000960791   -0.0000214941
   0.0000102464   -0.0000289327   -0.0000027617
  -0.0000014312    0.0000183186   -0.0000053213
   0.0000007398    0.0000054932   -0.0000036384
   0.0000020435    0.0000036950   -0.0000037906
   0.0000007865    0.0000035523   -0.0000056307
  -0.0000013733    0.0000053969   -0.0000182928
   0.0000102575    0.0000029795    0.0000287806
  -0.0000083041    0.0000073403   -0.0000279477
   0.0000050638    0.0000083011   -0.0000081566
  -0.0000083976    0.0000280050   -0.0000071216
   0.0000038684   -0.0000009658    0.0000001411
  -0.0000021730    0.0000038115   -0.0000045626
   0.0000013950    0.0000025170   -0.0000023763
   0.0000013850    0.0000022364   -0.0000026262
  -0.0000020824    0.0000045846   -0.0000038817
   0.0000039066   -0.0000000420    0.0000009329
  -0.0000026496    0.0000024460   -0.0000104837
   0.0000005413    0.0000036725   -0.0000040458
   0.0000005542    0.0000041862   -0.0000035328
  -0.0000027142    0.0000105343   -0.0000023247
   0.0000033128    0.0000001178    0.0000005765
   0.0000015093   -0.0000016591   -0.0000040033
   0.0000043516    0.0000013785   -0.0000015440
   0.0000015010    0.0000038967    0.0000016315
   0.0000032715   -0.0000005895   -0.0000001866
   0.0000032674    0.0000005771    0.0000002214
   0.0000015312   -0.0000039418   -0.0000015518
   0.0000043742   -0.0000014078    0.0000015084
   0.0000015128    0.0000016413    0.0000039830
   0.0000032591   -0.0000001815   -0.0000006897
   0.0000080038    0.0000281376   -0.0000019179
   0.0000032087   -0.0000008979   -0.0000164028
   0.0000032794    0.0000164027    0.0000009191
   0.0000079479    0.0000018694   -0.0000281008
  -0.0000001133    0.0000012005   -0.0000108722
  -0.0000031277   -0.0000044423   -0.0000193118
   0.0000014697    0.0000049474   -0.0000051042
   0.0000014549    0.0000052397   -0.0000047784
  -0.0000031064    0.0000194799    0.0000045573
  -0.0000000825    0.0000110600   -0.0000013512
   0.0000327807    0.0001062054   -0.0000104225
  -0.0000098671    0.0000325342   -0.0000321263
   0.0000326468    0.0000108308   -0.0001060161
   0.0000098652    0.0000052163   -0.0000332683
   0.0000012912    0.0000022714   -0.0000149942
   0.0000024656   -0.0000023653   -0.0000194312
   0.0000042592    0.0000049559   -0.0000048073
   0.0000024665    0.0000196116    0.0000023512
   0.0000013347    0.0000151975   -0.0000022952
   0.0000099657    0.0000334948   -0.0000054003
   0.0001558590    0.0005289661    0.0002238693
   0.0001556472   -0.0002240109   -0.0005299374
   0.0000364405    0.0000192274   -0.0001046989
   0.0000125184    0.0000063624   -0.0000396402
   0.0000044525    0.0000027320   -0.0000149773
   0.0000079394    0.0000005473   -0.0000192948
   0.0000079225    0.0000193427   -0.0000005799
   0.0000044677    0.0000152373   -0.0000028285
   0.0000126441    0.0000399960   -0.0000065440
   0.0000364242    0.0001048956   -0.0000198241
   0.0327288125   -0.0227495769    0.0227495433
  -0.0003024484    0.0002421962   -0.0003757672
  -0.0000888484    0.0000988161   -0.0001011144
  -0.0000181487    0.0000274840   -0.0000319805
  -0.0000009127    0.0000096031   -0.0000107575
   0.0000678055   -0.0000012670    0.0000010452
  -0.0000008230    0.0000110697   -0.0000095452
  -0.0000178399    0.0000328420   -0.0000274140
  -0.0000890339    0.0001012735   -0.0000987689
  -0.0003023866    0.0003753299   -0.0002421249
   0.0001648289    0.0002278244   -0.0005335978
  -0.0000269046   -0.0000345695    0.0001739050
   0.0000012112   -0.0000005084    0.0000447191
   0.0000102263   -0.0000001548    0.0000187233
   0.0000072429   -0.0000051871    0.0000051397
   0.0000102174   -0.0000187285    0.0000000365
   0.0000011077   -0.0000447062    0.0000003413
  -0.0000271143   -0.0001742016    0.0000345972
   0.0001648283    0.0005327408   -0.0002277685
   0.0000086584   -0.0002508482    0.0002507960
  -0.0000069002   -0.0000338469   -0.0000334678
   0.0000108603    0.0000039796    0.0000036704
   0.0000067107    0.0000037325    0.0000038056
   0.0000060178    0.0000002696    0.0000003354
   0.0000060287   -0.0000002882   -0.0000003724
   0.0000067306   -0.0000037323   -0.0000037910
   0.0000108039   -0.0000040873   -0.0000040573
  -0.0000068853    0.0000341639    0.0000333950
   0.0000059214   -0.0000108290   -0.0000102701
   0.0000057820    0.0000104791    0.0000105650
   0.0000051443   -0.0000004858   -0.0000178699
   0.0000028801    0.0000037578    0.0000033019
   0.0000016645    0.0000022939   -0.0000008368