   2 1000
1 1
    13.386073294362292     0.000000000000000    -0.000000000000000
    -0.000000000000000    13.386073294362301    -0.000000000000004
    -0.000000000000000    -0.000000000000048    13.386073294362294
1 2
     0.421025815128859     0.100756856449352     0.100756856454243
    -0.106092059774884    -0.168164376865368    -0.157637099148078
    -0.106092059777255    -0.157637099144192    -0.168164376867123
1 3
     0.102402151197752     0.023702975751956     0.023702975753015
    -0.023008707042289     0.000768587412271    -0.010901494899237
    -0.023008707042779    -0.010901494898978     0.000768587411875
1 4
     0.030605088162679     0.005771211316942     0.005771211317240
    -0.005594994174436     0.000235147320117    -0.003467507808400
    -0.005594994174597    -0.003467507808317     0.000235147320021
1 5
     0.010423994207514     0.001566566056571     0.001566566056670
    -0.001527047145245    -0.000183213608978    -0.001154414833793
    -0.001527047145307    -0.001154414833765    -0.000183213609004
1 6
     0.011822996931796    -0.000000000000053     0.000000000000048
     0.000000000000053    -0.000031100415960     0.000000000000000
    -0.000000000000048     0.000000000000000    -0.000031100415960
1 7
     0.010423994207516    -0.001566566056655    -0.001566566056594
     0.001527047145330    -0.000183213609005    -0.001154414833794
     0.001527047145231    -0.001154414833766    -0.000183213608979
1 8
     0.030605088162688    -0.005771211317182    -0.005771211317024
     0.005594994174677     0.000235147320017    -0.003467507808406
     0.005594994174381    -0.003467507808320     0.000235147320113
1 9
     0.102402151197786    -0.023702975752767    -0.023702975752286
     0.023008707043101     0.000768587411858    -0.010901494899260
     0.023008707042050    -0.010901494898989     0.000768587412254
1 10
     0.421025815129012    -0.100756856453291    -0.100756856450854
     0.106092059778823    -0.168164376867200    -0.157637099148109
     0.106092059773867    -0.157637099144314    -0.168164376865443
1 11
    -0.168164376865368    -0.106092056816238    -0.157637096950322
     0.100756859258191     0.421025815128172     0.100756857857134
    -0.157637101341262    -0.106092058296062    -0.168164376866437
1 12
    -0.015123378806138     0.025879872858797    -0.011706784524320
     0.025879873580257    -0.015123378806112    -0.011706784687366
    -0.004014596120326    -0.004014596064505     0.001602233600940
1 13
    -0.002380620101157     0.006289599381590    -0.004629968205660
     0.008743895892921    -0.000287125630645    -0.000012527287740
    -0.000645791851072    -0.002447929880042     0.000583519998341
1 14
    -0.000071513324585     0.002059348096534    -0.001343017490699
     0.002788340221315     0.000032483412085     0.000202876320938
    -0.000122999666791    -0.000690992366344     0.000259935370447
1 15
     0.000730491112283     0.001575780515907    -0.000279755214359
     0.001607583999926     0.000123200859910     0.000224898999339
     0.000287535835088    -0.000182238289525     0.000230132865520
1 16
     0.000730491112282     0.000279755214356    -0.001575780515927
    -0.000287535835091     0.000230132865520    -0.000182238289530
    -0.001607583999906     0.000224898999334     0.000123200859910
1 17
    -0.000071513324586     0.001343017490683    -0.002059348096560
     0.000122999666793     0.000259935370447    -0.000690992366361
    -0.002788340221281     0.000202876320934     0.000032483412085
1 18
    -0.002380620101159     0.004629968205605    -0.006289599381667
     0.000645791851080     0.000583519998343    -0.002447929880105
    -0.008743895892815    -0.000012527287735    -0.000287125630644
1 19
    -0.015123378806141     0.011706784524179    -0.025879872859114
     0.004014596120370     0.001602233600943    -0.004014596064614
    -0.025879873579938    -0.011706784687067    -0.015123378806112
1 20
    -0.168164376865444     0.157637096948439     0.106092056817709
     0.157637101343221    -0.168164376866437    -0.106092058298665
    -0.100756859257219     0.100756857854775     0.421025815128249
1 21
     0.000768587412271    -0.023008706400710    -0.010901494747198
     0.023702976412820     0.102402151197596     0.023702976083167
    -0.010901495050862    -0.023008706721632     0.000768587412030
1 22
    -0.000287125630637     0.008743895649149    -0.000012527287597
     0.006289599556916    -0.002380620101143    -0.004629968270169
    -0.002447929914142    -0.000645791842109     0.000583519998320
1 23
     0.000196416097615     0.002505273962395    -0.000375583248617
     0.002505274032237     0.000196416097614    -0.000375583253845
    -0.000870863451274    -0.000870863439142    -0.000064830589182
1 24
     0.000772631879211     0.001664336642483     0.000180488236426
     0.001684662676456     0.000237690166352     0.000195104176627
    -0.000178010017822    -0.000185288088877    -0.000033207455141
1 25
     0.000607412130486     0.000461113239470    -0.000461113239476
     0.000563588741738    -0.000154791561178    -0.000135386224458
    -0.000563588741730    -0.000135386224454    -0.000154791561178
1 26
     0.000772631879211    -0.000180488236424    -0.001664336642504
     0.000178010017824    -0.000033207455141    -0.000185288088882
    -0.001684662676435     0.000195104176623     0.000237690166352
1 27
     0.000196416097616     0.000375583248613    -0.002505273962426
     0.000870863451285    -0.000064830589183    -0.000870863439165
    -0.002505274032206    -0.000375583253835     0.000196416097614
1 28
    -0.000287125630635     0.000012527287596    -0.008743895649257
     0.002447929914172     0.000583519998319    -0.000645791842129
    -0.006289599556837    -0.004629968270054    -0.002380620101144
1 29
     0.000768587412254     0.010901494747074     0.023008706401020
     0.010901495051003     0.000768587412030    -0.023008706722188
    -0.023702976412578     0.023702976082602     0.102402151197614
1 30
     0.001950690222709     0.011521888517342    -0.011521888517499
     0.004125653002137    -0.015363855365244    -0.026444807587745
    -0.004125653002071    -0.026444807587095    -0.015363855365246
1 31
     0.000235147320117    -0.005594994018422    -0.003467507760046
     0.005771211477846     0.030605088162642     0.005771211397607
    -0.003467507856634    -0.005594994096485     0.000235147320059
1 32
     0.000032483412088     0.002788340143578     0.000202876318100
     0.002059348153941    -0.000071513324581    -0.001343017509412
    -0.000690992375968    -0.000122999665087     0.000259935370440
1 33
     0.000237690166353     0.001684662629489     0.000195104173903
     0.001664336688884     0.000772631879210     0.000180488238944
    -0.000185288091456    -0.000178010015343    -0.000033207455141
1 34
     0.000083226619643     0.000680071775780    -0.000289057419457
     0.000680071794737     0.000083226619643    -0.000289057423485
    -0.000337572586872    -0.000337572582168    -0.000070086219727
1 35
     0.000083226619643     0.000289057419453    -0.000680071775788
     0.000337572586876    -0.000070086219727    -0.000337572582176
    -0.000680071794729    -0.000289057423477     0.000083226619643
1 36
     0.000237690166354    -0.000195104173901    -0.001684662629509
     0.000185288091458    -0.000033207455141    -0.000178010015348
    -0.001664336688864     0.000180488238941     0.000772631879210
1 37
     0.000032483412089    -0.000202876318098    -0.002788340143612
     0.000690992375977     0.000259935370439    -0.000122999665091
    -0.002059348153915    -0.001343017509379    -0.000071513324581
1 38
     0.000235147320113     0.003467507760005     0.005594994018499
     0.003467507856678     0.000235147320059    -0.005594994096620
    -0.005771211477789     0.005771211397470     0.030605088162646
1 39
     0.000723751463120    -0.000071600530457    -0.004408483025770
     0.002476993587985    -0.000377084070020    -0.006426534466504
    -0.000610600621506    -0.008683266335675    -0.002446416380913
1 40
     0.000723751463118     0.004408483025712     0.000071600530454
     0.000610600621518    -0.002446416380912    -0.008683266335887
    -0.002476993587952    -0.006426534466345    -0.000377084070019
1 41
    -0.000183213608978    -0.001527047102663    -0.001154414817696
     0.001566566100247     0.010423994207504     0.001566566078478
    -0.001154414849852    -0.001527047123980    -0.000183213608994
1 42
     0.000123200859911     0.001607583955106     0.000224898996198
     0.001575780559837     0.000730491112285    -0.000279755218256
    -0.000182238292060     0.000287535831076     0.000230132865516
1 43
    -0.000154791561178     0.000563588726027    -0.000135386222572
     0.000461113252323     0.000607412130485    -0.000461113245904
    -0.000135386226340    -0.000563588733874    -0.000154791561178
1 44
    -0.000070086219727     0.000337572577468    -0.000337572577472
     0.000289057427509     0.000083226619643    -0.000680071785267
    -0.000289057427505    -0.000680071785250     0.000083226619643
1 45
    -0.000154791561178     0.000135386222571    -0.000563588726034
     0.000135386226342    -0.000154791561178    -0.000563588733888
    -0.000461113252318    -0.000461113245893     0.000607412130485
1 46
     0.000123200859911    -0.000224898996196    -0.001607583955125
     0.000182238292062     0.000230132865516     0.000287535831082
    -0.001575780559818    -0.000279755218248     0.000730491112285
1 47
    -0.000183213608979     0.001154414817682     0.001527047102685
     0.001154414849867    -0.000183213608994    -0.001527047124017
    -0.001566566100232     0.001566566078440     0.010423994207505
1 48
     0.000274609776790    -0.000220253787841    -0.001339485881038
     0.000716050139355    -0.000001198390492    -0.002101449248560
    -0.000131318728140    -0.002786506715938    -0.000034934464094
1 49
    -0.000070980068101     0.000395023162761    -0.000395023162767
     0.000864840939289     0.000183325740884    -0.002540472387755
    -0.000864840939278    -0.002540472387693     0.000183325740885
1 50
     0.000274609776789     0.001339485881021     0.000220253787843
     0.000131318728143    -0.000034934464094    -0.002786506716006
    -0.000716050139345    -0.002101449248508    -0.000001198390491
1 51
    -0.000031100415960     0.000000000000053     0.000000000000000
    -0.000000000000053     0.011822996931796     0.000000000000009
    -0.000000000000000    -0.000000000000009    -0.000031100415960
1 52
     0.000230132865519    -0.000287535827069    -0.000182238286988
     0.000279755222151     0.000730491112282    -0.001575780537894
     0.000224899002470    -0.001607583977494     0.000123200859911
1 53
    -0.000033207455142     0.000178010012868    -0.000185288086301
    -0.000180488241460     0.000772631879211    -0.001664336665706
     0.000195104179343    -0.001684662652951     0.000237690166353
1 54
    -0.000033207455142     0.000185288086298    -0.000178010012870
    -0.000195104179345     0.000237690166354    -0.001684662652992
     0.000180488241458    -0.001664336665666     0.000772631879211
1 55
     0.000230132865518     0.000182238286986     0.000287535827072
    -0.000224899002472     0.000123200859912    -0.001607583977533
    -0.000279755222147    -0.001575780537855     0.000730491112283
1 56
    -0.000031100415960     0.000000000000000    -0.000000000000048
     0.000000000000000    -0.000031100415960    -0.000000000000009
     0.000000000000048     0.000000000000009     0.011822996931796
1 57
     0.000230132865517    -0.000182238286974    -0.000287535827090
     0.000224899002460     0.000123200859908    -0.001607583977534
     0.000279755222165    -0.001575780537856     0.000730491112287
1 58
    -0.000033207455136    -0.000185288086282     0.000178010012849
     0.000195104179329     0.000237690166350    -0.001684662652988
    -0.000180488241437    -0.001664336665663     0.000772631879208
1 59
    -0.000033207455136    -0.000178010012847     0.000185288086284
     0.000180488241440     0.000772631879208    -0.001664336665703
    -0.000195104179326    -0.001684662652947     0.000237690166350
1 60
     0.000230132865517     0.000287535827086     0.000182238286975
    -0.000279755222168     0.000730491112287    -0.001575780537894
    -0.000224899002457    -0.001607583977495     0.000123200859908
1 61
    -0.000183213609005     0.001527047102755    -0.001154414817707
    -0.001566566100339     0.010423994207527    -0.001566566078472
    -0.001154414849863     0.001527047123974    -0.000183213608989
1 62
     0.000259935370444     0.000122999663375    -0.000690992356729
     0.001343017528119    -0.000071513324588    -0.002059348125262
     0.000202876323766    -0.002788340182414     0.000032483412091
1 63
    -0.000064830589184     0.000870863427017    -0.000870863427029
     0.000375583259074     0.000196416097616    -0.002505273997348
    -0.000375583259069    -0.002505273997286     0.000196416097615
1 64
     0.000259935370443     0.000690992356720    -0.000122999663378
    -0.000202876323767     0.000032483412091    -0.002788340182481
    -0.001343017528102    -0.002059348125211    -0.000071513324588
1 65
    -0.000183213609004     0.001154414817693    -0.001527047102770
     0.001154414849877    -0.000183213608989     0.001527047124011
     0.001566566100317    -0.001566566078434     0.010423994207526
1 66
     0.000123200859908     0.000224898996194    -0.001607583955128
    -0.000182238292061     0.000230132865519    -0.000287535831097
    -0.001575780559820     0.000279755218263     0.000730491112285
1 67
    -0.000203213924557     0.000174173548099    -0.000464596125175
     0.000174173552951    -0.000203213924557    -0.000464596131648
    -0.000502407420287    -0.000502407413287     0.000569331300754
1 68
    -0.000127662026553     0.000310232518081    -0.000310232518085
     0.000309255993372     0.000017989831808    -0.000627694609000
    -0.000309255993368    -0.000627694608984     0.000017989831808
1 69
    -0.000203213924557     0.000464596125170    -0.000174173548101
     0.000502407420293     0.000569331300754    -0.000502407413299
    -0.000174173552949    -0.000464596131637    -0.000203213924557
1 70
     0.000123200859908     0.001607583955108    -0.000224898996197
     0.001575780559839     0.000730491112285     0.000279755218269
     0.000182238292058    -0.000287535831090     0.000230132865519
1 71
     0.000235147320017     0.005594994018686    -0.003467507760088
    -0.005771211478110     0.030605088162726    -0.005771211397593
    -0.003467507856675     0.005594994096471     0.000235147320075
1 72
     0.000583519998335     0.000645791833113    -0.002447929845981
     0.004629968334664    -0.002380620101167    -0.006289599469319
    -0.000012527287897    -0.008743895770937    -0.000287125630628
1 73
     0.000583519998332     0.002447929845948    -0.000645791833125
     0.000012527287901    -0.000287125630627    -0.008743895771150
    -0.004629968334604    -0.006289599469163    -0.002380620101166
1 74
     0.000235147320021     0.003467507760044    -0.005594994018741
     0.003467507856715     0.000235147320075     0.005594994096604
     0.005771211478031    -0.005771211397453     0.030605088162721
1 75
    -0.000001198390490     0.000716050119399    -0.002101449219269
    -0.000220253793996     0.000274609776794    -0.001339485899712
    -0.002786506754781    -0.000131318726311    -0.000034934464101
1 76
     0.000237690166350     0.000195104173896    -0.001684662629507
    -0.000185288091453    -0.000033207455137     0.000178010015332
    -0.001664336688862    -0.000180488238925     0.000772631879210
1 77
     0.000017989831808     0.000309255984753    -0.000627694600251
     0.000310232526727    -0.000127662026553    -0.000310232522408
    -0.000627694617733    -0.000309255989058     0.000017989831808
1 78
     0.000017989831808     0.000627694600243    -0.000309255984757
     0.000627694617741     0.000017989831808    -0.000309255989066
    -0.000310232526723    -0.000310232522400    -0.000127662026553
1 79
     0.000237690166350     0.001684662629487    -0.000195104173898
     0.001664336688882     0.000772631879210    -0.000180488238930
     0.000185288091451     0.000178010015329    -0.000033207455137
1 80
    -0.000001198390489     0.002101449219243    -0.000716050119408
     0.002786506754815    -0.000034934464101    -0.000131318726315
     0.000220253793993    -0.001339485899678     0.000274609776794
1 81
     0.000768587411858     0.023008706401595    -0.010901494747374
    -0.023702976413704     0.102402151197941    -0.023702976083113
    -0.010901495051031     0.023008706721578     0.000768587412099
1 82
     0.001602233600969     0.004014596008545    -0.004014596008610
     0.011706784850431    -0.015123378806141    -0.025879873219831
    -0.011706784850272    -0.025879873219195    -0.015123378806138
1 83
     0.000768587411875     0.010901494747233    -0.023008706401829
     0.010901495051155     0.000768587412099     0.023008706722126
     0.023702976413387    -0.023702976082540     0.102402151197924
1 84
    -0.000377084070012     0.002476993518951    -0.006426534376922
    -0.000071600532497     0.000723751463133    -0.004408483087233
    -0.008683266456724    -0.000610600612993    -0.002446416380933
1 85
     0.000183325740884     0.000864840915189    -0.002540472352345
     0.000395023173764    -0.000070980068102    -0.000395023168271
    -0.002540472423105    -0.000864840927226     0.000183325740886
1 86
     0.000772631879208     0.000180488236414    -0.001664336642502
    -0.000178010017815    -0.000033207455137     0.000185288088867
    -0.001684662676433    -0.000195104176608     0.000237690166352
1 87
     0.000569331300754     0.000502407406289    -0.000502407406295
     0.000464596138120    -0.000203213924557    -0.000174173550527
    -0.000464596138114    -0.000174173550523    -0.000203213924557
1 88
     0.000772631879208     0.001664336642481    -0.000180488236417
     0.001684662676454     0.000237690166352    -0.000195104176613
     0.000178010017813     0.000185288088863    -0.000033207455138
1 89
     0.000183325740885     0.002540472352314    -0.000864840915200
     0.002540472423136     0.000183325740886    -0.000864840927248
    -0.000395023173759    -0.000395023168260    -0.000070980068102
1 90
    -0.000377084070010     0.006426534376841    -0.002476993518981
     0.008683266456831    -0.002446416380934    -0.000610600613012
     0.000071600532497    -0.004408483087123     0.000723751463132
1 91
    -0.168164376867200     0.106092056821225    -0.157637096951058
    -0.100756859263177     0.421025815129699    -0.100756857857661
    -0.157637101342053     0.106092058296586    -0.168164376866131
1 92
    -0.168164376867124     0.157637096949100    -0.106092056822261
     0.157637101343934    -0.168164376866131     0.106092058299075
     0.100756859261769    -0.100756857855184     0.421025815129622
1 93
    -0.015363855365244     0.004125652887218    -0.026444807219128
     0.011521888838438     0.001950690222733    -0.011521888678129
    -0.026444807955688    -0.004125652944517    -0.015363855365271
1 94
    -0.002446416380919     0.000610600604532    -0.008683266214854
     0.004408483148597     0.000723751463109     0.000071600531464
    -0.006426534555907    -0.002476993553422    -0.000377084070003
1 95
    -0.000034934464096     0.000131318724493    -0.002786506677163
     0.001339485918358     0.000274609776786     0.000220253790917
    -0.002101449277797    -0.000716050129363    -0.000001198390486
1 96
     0.000730491112288    -0.000279755214363    -0.001575780515925
     0.000287535835098     0.000230132865515     0.000182238289516
    -0.001607583999905    -0.000224898999320     0.000123200859909
1 97
     0.000730491112287     0.001575780515906     0.000279755214366
     0.001607583999925     0.000123200859909    -0.000224898999326
    -0.000287535835094     0.000182238289512     0.000230132865516
1 98
    -0.000034934464097     0.002786506677129    -0.000131318724495
     0.002101449277823    -0.000001198390486    -0.000716050129381
    -0.001339485918342     0.000220253790913     0.000274609776786
1 99
    -0.002446416380921     0.008683266214749    -0.000610600604539
     0.006426534555985    -0.000377084070002    -0.002476993553485
    -0.004408483148544     0.000071600531467     0.000723751463111
1 100
    -0.015363855365246     0.026444807218801    -0.004125652887264
     0.026444807956012    -0.015363855365271    -0.004125652944628
    -0.011521888838300    -0.011521888677834     0.001950690222736
1 101
    -0.168164376867124    -0.157637096949257    -0.106092056823433
    -0.157637101344083    -0.168164376866437    -0.106092058300884
     0.100756859261111     0.100756857855163     0.421025815129929
1 102
    -0.015123378806073    -0.011706784523936     0.025879872859079
    -0.004014596120551     0.001602233600875    -0.004014596064417
     0.025879873580041    -0.011706784687201    -0.015123378806112
1 103
    -0.002380620101144    -0.004629968205578     0.006289599381628
    -0.000645791851126     0.000583519998308    -0.002447929880054
     0.008743895892832    -0.000012527287775    -0.000287125630624
1 104
    -0.000071513324581    -0.001343017490682     0.002059348096553
    -0.000122999666802     0.000259935370436    -0.000690992366344
     0.002788340221280     0.000202876320920     0.000032483412091
1 105
     0.000730491112287    -0.000279755214362     0.001575780515930
     0.000287535835094     0.000230132865515    -0.000182238289514
     0.001607583999899     0.000224898999322     0.000123200859910
1 106
     0.000730491112287    -0.001575780515911     0.000279755214366
    -0.001607583999919     0.000123200859910     0.000224898999329
    -0.000287535835090    -0.000182238289510     0.000230132865515
1 107
    -0.000071513324581    -0.002059348096528     0.001343017490698
    -0.002788340221314     0.000032483412091     0.000202876320927
     0.000122999666800    -0.000690992366328     0.000259935370437
1 108
    -0.002380620101146    -0.006289599381552     0.004629968205636
    -0.008743895892939    -0.000287125630623    -0.000012527287770
     0.000645791851118    -0.002447929879997     0.000583519998309
1 109
    -0.015123378806075    -0.025879872858765     0.011706784524080
    -0.025879873580352    -0.015123378806112    -0.011706784687473
     0.004014596120497    -0.004014596064331     0.001602233600878
1 110
    -0.168164376867200     0.106092056822319     0.157637096951214
    -0.100756859262592     0.421025815130004     0.100756857857712
     0.157637101342202    -0.106092058298320    -0.168164376866437
1 111
     0.001602233600900    -0.004014596008699    -0.004014596008386
    -0.011706784850265    -0.015123378806073     0.025879873219796
    -0.011706784850484     0.025879873219299    -0.015123378806138
1 112
    -0.002417833019010     0.000189602923635     0.000189602923639
     0.000189602928922    -0.002417833019010     0.000189602926283
     0.000189602928919     0.000189602926275    -0.002417833019010
1 113
    -0.000342582475592     0.000474815065567     0.000474815065575
     0.000505579838321    -0.000402626120526     0.000238180929054
     0.000505579838312     0.000238180929040    -0.000402626120526
1 114
     0.000569331300754     0.000502407406288     0.000502407406302
     0.000464596138121    -0.000203213924557     0.000174173550531
     0.000464596138107     0.000174173550519    -0.000203213924557
1 115
     0.000617941920923    -0.000000000000004     0.000000000000004
     0.000000000000004    -0.000186209077294     0.000083709034397
    -0.000000000000004     0.000083709034395    -0.000186209077294
1 116
     0.000569331300754    -0.000502407406296    -0.000502407406294
    -0.000464596138113    -0.000203213924557     0.000174173550523
    -0.000464596138115     0.000174173550527    -0.000203213924557
1 117
    -0.000342582475592    -0.000474815065569    -0.000474815065572
    -0.000505579838319    -0.000402626120526     0.000238180929046
    -0.000505579838315     0.000238180929048    -0.000402626120526
1 118
    -0.002417833019010    -0.000189602923637    -0.000189602923637
    -0.000189602928921    -0.002417833019010     0.000189602926280
    -0.000189602928920     0.000189602926278    -0.002417833019010
1 119
     0.001602233600906     0.004014596008341     0.004014596008752
     0.011706784850623    -0.015123378806141     0.025879873219926
     0.011706784850119     0.025879873219162    -0.015123378806075
1 120
    -0.002275112178417    -0.000000000000080     0.000000000000074
     0.000000000000080    -0.020115755618697     0.000334911417863
    -0.000000000000074     0.000334911417855    -0.020115755618698
1 121
     0.000583519998299    -0.000645791833143    -0.002447929845926
    -0.004629968334638    -0.002380620101136     0.006289599469294
    -0.000012527287968     0.008743895770940    -0.000287125630624
1 122
    -0.000402626120526     0.000505579824223     0.000238180925732
     0.000474815078806    -0.000342582475592     0.000474815072195
     0.000238180932362     0.000505579831263    -0.000402626120526
1 123
     0.000017989831808     0.000627694600241     0.000309255984759
     0.000627694617743     0.000017989831808     0.000309255989071
     0.000310232526721     0.000310232522395    -0.000127662026553
1 124
     0.000097087778038     0.000280754315891     0.000045223560023
     0.000284431922189    -0.000086190265291     0.000084516707768
     0.000038909221590     0.000076063522043    -0.000098420767476
1 125
     0.000097087778038    -0.000045223560023    -0.000280754315895
    -0.000038909221591    -0.000098420767476     0.000076063522045
    -0.000284431922186     0.000084516707766    -0.000086190265291
1 126
     0.000017989831808    -0.000309255984755    -0.000627694600249
    -0.000310232526725    -0.000127662026553     0.000310232522402
    -0.000627694617736     0.000309255989064     0.000017989831808
1 127
    -0.000402626120526    -0.000238180925729    -0.000505579824229
    -0.000238180932365    -0.000402626120526     0.000505579831276
    -0.000474815078801     0.000474815072184    -0.000342582475592
1 128
     0.000583519998300     0.002447929845898     0.000645791833153
     0.000012527287965    -0.000287125630623     0.008743895771154
     0.004629968334580     0.006289599469140    -0.002380620101137
1 129
    -0.000528205528376    -0.000788712878841    -0.001801673048177
    -0.000921080096333    -0.006057783221674     0.000794563910171
     0.001862975854357    -0.000830791328906    -0.006041697522547
1 130
    -0.000528205528378     0.001801673048154     0.000788712878848
    -0.001862975854377    -0.006041697522545    -0.000830791328925
     0.000921080096324     0.000794563910152    -0.006057783221674
1 131
     0.000259935370433    -0.000122999663379    -0.000690992356711
    -0.001343017528117    -0.000071513324578     0.002059348125255
     0.000202876323743     0.002788340182412     0.000032483412092
1 132
    -0.000203213924557     0.000464596125166     0.000174173548102
     0.000502407420297     0.000569331300754     0.000502407413305
     0.000174173552948     0.000464596131632    -0.000203213924557
1 133
    -0.000086190265290     0.000284431914259     0.000084516706589
     0.000280754323719     0.000097087778038     0.000045223560654
     0.000076063523104     0.000038909221047    -0.000098420767476
1 134
    -0.000087686295933     0.000089290965268    -0.000089290965269
     0.000089290967757    -0.000087686295933    -0.000089290966513
    -0.000089290967755    -0.000089290966511    -0.000087686295933
1 135
    -0.000086190265290    -0.000084516706588    -0.000284431914263
    -0.000076063523105    -0.000098420767476     0.000038909221048
    -0.000280754323716     0.000045223560653     0.000097087778038
1 136
    -0.000203213924557    -0.000174173548099    -0.000464596125171
    -0.000174173552951    -0.000203213924557     0.000464596131643
    -0.000502407420291     0.000502407413292     0.000569331300754
1 137
     0.000259935370433     0.000690992356703     0.000122999663382
    -0.000202876323747     0.000032483412092     0.002788340182480
     0.001343017528100     0.002059348125205    -0.000071513324579
1 138
    -0.000021859618437    -0.000095345137903    -0.000534703153208
    -0.000093400505587    -0.001616299501773     0.000373044499204
     0.000525710013381    -0.000397075173844    -0.001606894963841
1 139
    -0.000184068061480     0.000264756669830    -0.000264756669834
    -0.000271721693543    -0.002273246502485    -0.000486814316514
     0.000271721693540    -0.000486814316502    -0.002273246502485
1 140
    -0.000021859618438     0.000534703153201     0.000095345137904
    -0.000525710013387    -0.001606894963840    -0.000397075173853
     0.000093400505586     0.000373044499195    -0.001616299501773
1 141
     0.000230132865514     0.000287535827073    -0.000182238286974
    -0.000279755222156     0.000730491112287     0.001575780537893
     0.000224899002456     0.001607583977491     0.000123200859911
1 142
    -0.000186209077294     0.000000000000004     0.000083709033230
    -0.000000000000004     0.000617941920923     0.000000000000001
     0.000083709035562    -0.000000000000001    -0.000186209077294
1 143
    -0.000098420767476    -0.000038909220505     0.000076063520984
    -0.000045223561284     0.000097087778038    -0.000280754319809
     0.000084516708944    -0.000284431918220    -0.000086190265290
1 144
    -0.000098420767476    -0.000076063520983     0.000038909220506
    -0.000084516708945    -0.000086190265290    -0.000284431918227
     0.000045223561284    -0.000280754319802     0.000097087778038
1 145
    -0.000186209077294    -0.000083709033229    -0.000000000000003
    -0.000083709035563    -0.000186209077294    -0.000000000000001
     0.000000000000003     0.000000000000001     0.000617941920923
1 146
     0.000230132865514     0.000182238286972    -0.000287535827076