------------------------------------------------------------
          Invoking FHI-aims ...

          When using FHI-aims, please cite the following reference:

            Volker Blum, Ralf Gehrke, Felix Hanke, Paula Havu,
            Ville Havu, Xinguo Ren, Karsten Reuter, and Matthias Scheffler,
            'Ab Initio Molecular Simulations with Numeric Atom-Centered Orbitals',
            Computer Physics Communications 180, 2175-2196 (2009)

          In addition, many other developments in FHI-aims are likely important for
          your particular application. If so, please cite them. A partial list of references
          is written at the end of this file. Thank you for giving credit to the authors
          of these developments.

          For general information about FHI-aims please find us at

            https://fhi-aims.org

          Online tutorials can be found at

            https://fhi-aims-club.gitlab.io/tutorials/tutorials-overview/

          For any questions about FHI-aims, please visit our slack channel at

            https://fhi-aims.slack.com

          and our main development and support site at

            https://aims-git.rz-berlin.mpg.de .

          The latter site, in particular, has a wiki to collect information, as well
          as an issue tracker to log discussions, suggest improvements, and report issues
          or bugs. https://aims-git.rz-berlin.mpg.de is also the main development site
          of the project and all new and updated code versions can be obtained there.
          Please send an email to aims-coordinators@fhi-berlin.mpg.de and we will add
          you to these sites. They are for you and everyone is welcome there.

------------------------------------------------------------



  Date     :  20250610, Time     :  150216.456
  Time zero on CPU 1             :   0.913040000000000E-01  s.
  Internal wall clock time zero  :           518799736.456  s.

  FHI-aims created a unique identifier for this run for later identification
  aims_uuid : 2B5BB223-7A4F-475F-A872-213F6D7BCAD3

  Build configuration of the current instance of FHI-aims
  -------------------------------------------------------
  FHI-aims version      : 240206
  Commit number         : 583c55b2e
  CMake host system     : Darwin-23.4.0
  CMake version         : 3.29.1
  Fortran compiler      : /opt/homebrew/bin/mpif90 (GNU) version 13.2.0
  Fortran compiler flags: -O3 -fallow-argument-mismatch -ffree-line-length-none -framework accelerate
  C compiler            : /opt/homebrew/bin/mpicc (AppleClang) version 15.0.0.15000309
  C compiler flags      : -O3 -framework accelerate
  C++ compiler          : /opt/homebrew/bin/mpic++ (AppleClang) version 15.0.0.15000309
  C++ compiler flags    : -O3 -framework accelerate
  HIP compiler          :
  HIP compiler flags    :
  HIP GPU arch          :
  Using MPI
  Using ScaLAPACK
  Using LibXC
  Using i-PI
  Using RLSY
  Linking against: /Users/carbogno/Codes/2023_Scalapack/libscalapack.a

  Using        8 parallel tasks.
  Task        0 on host ThMac05.local reporting.
  Task        1 on host ThMac05.local reporting.
  Task        2 on host ThMac05.local reporting.
  Task        3 on host ThMac05.local reporting.
  Task        4 on host ThMac05.local reporting.
  Task        5 on host ThMac05.local reporting.
  Task        6 on host ThMac05.local reporting.
  Task        7 on host ThMac05.local reporting.

  Memory overcommitment: We could not find /proc/sys/vm/overcommit_memory on your system.

  Obtaining array dimensions for all initial allocations:
  
  -----------------------------------------------------------------------
  Parsing control.in (first pass over file, find array dimensions only).
  The contents of control.in will be repeated verbatim below
  unless switched off by setting 'verbatim_writeout .false.' .
  in the first line of control.in .
  -----------------------------------------------------------------------
  
  #===============================================================================
  # FHI-aims file: ./control.in
  # Created using the Atomic Simulation Environment (ASE)
  # Tue Jun 10 15:02:16 2025
  #===============================================================================
  xc                                 pw-lda
  k_grid                             4 4 4
  sc_accuracy_rho                    1e-06
  relativistic                       atomic_zora scalar
  output_level                       MD_light
  use_pimd_wrapper                   localhost 10005
  #===============================================================================
  
  ################################################################################
  #
  #  FHI-aims code project
  #  VB, Fritz-Haber Institut, 2009
  #
  #  Suggested "light" defaults for Si atom (to be pasted into control.in file)
  #  Be sure to double-check any results obtained with these settings for post-processing,
  #  e.g., with the "tight" defaults and larger basis sets.
  #
  #  2020/09/08 Added f function to "light" after reinspection of Delta test outcomes.
  #             This was done for all of Al-Cl and is a tricky decision since it makes
  #             "light" calculations measurably more expensive for these elements.
  #             Nevertheless, outcomes for P, S, Cl (and to some extent, Si) appear
  #             to justify this choice.
  #
  ################################################################################
    species        Si
  #     global species definitions
      nucleus             14
      mass                28.0855
  #
      l_hartree           4
  #
      cut_pot             3.5          1.5  1.0
      basis_dep_cutoff    1e-4
  #
      radial_base         42 5.0
      radial_multiplier   1
      angular_grids       specified
        division   0.5866   50
        division   0.9616  110
        division   1.2249  194
        division   1.3795  302
  #      division   1.4810  434
  #      division   1.5529  590
  #      division   1.6284  770
  #      division   1.7077  974
  #      division   2.4068 1202
  #      outer_grid   974
        outer_grid 302
  ################################################################################
  #
  #  Definition of "minimal" basis
  #
  ################################################################################
  #     valence basis states
      valence      3  s   2.
      valence      3  p   2.
  #     ion occupancy
      ion_occ      3  s   1.
      ion_occ      3  p   1.
  ################################################################################
  #
  #  Suggested additional basis functions. For production calculations,
  #  uncomment them one after another (the most important basis functions are
  #  listed first).
  #
  #  Constructed for dimers: 1.75 A, 2.0 A, 2.25 A, 2.75 A, 3.75 A
  #
  ################################################################################
  #  "First tier" - improvements: -571.96 meV to -37.03 meV
       hydro 3 d 4.2
       hydro 2 p 1.4
       hydro 4 f 6.2
       ionic 3 s auto
  #  "Second tier" - improvements: -16.76 meV to -3.03 meV
  #     hydro 3 d 9
  #     hydro 5 g 9.4
  #     hydro 4 p 4
  #     hydro 1 s 0.65
  #  "Third tier" - improvements: -3.89 meV to -0.60 meV
  #     ionic 3 d auto
  #     hydro 3 s 2.6
  #     hydro 4 f 8.4
  #     hydro 3 d 3.4
  #     hydro 3 p 7.8
  #  "Fourth tier" - improvements: -0.33 meV to -0.11 meV
  #     hydro 2 p 1.6
  #     hydro 5 g 10.8
  #     hydro 5 f 11.2
  #     hydro 3 d 1
  #     hydro 4 s 4.5
  #  Further basis functions that fell out of the optimization - noise
  #  level... < -0.08 meV
  #     hydro 4 d 6.6
  #     hydro 5 g 16.4
  #     hydro 4 d 9
  
  -----------------------------------------------------------------------
  Completed first pass over input file control.in .
  -----------------------------------------------------------------------
  
  
  -----------------------------------------------------------------------
  Parsing geometry.in (first pass over file, find array dimensions only).
  The contents of geometry.in will be repeated verbatim below
  unless switched off by setting 'verbatim_writeout .false.' .
  in the first line of geometry.in .
  -----------------------------------------------------------------------
  
  #=======================================================
  # FHI-aims file: ./geometry.in
  # Created using the Atomic Simulation Environment (ASE)
  # Tue Jun 10 15:02:16 2025
  #=======================================================
  lattice_vector 5.4088325884509993 0.0000000000639995 0.0000000001369997
  lattice_vector 0.0000000000629998 5.4088325742939993 0.0000000001030003
  lattice_vector 0.0000000001370002 0.0000000001020002 5.4088325742309999
  atom_frac -0.0302739276435963 -0.0048689840126312 -0.0465048726489001 Si
  atom_frac 0.0043986788424647 0.5210283275424074 0.4767451564111009 Si
  atom_frac 0.5199407129774992 0.0000115019088128 0.5269392133988671 Si
  atom_frac 0.4881696411340845 0.4769035174948757 0.0222293838398997 Si
  atom_frac 0.2448577655407371 0.2117265947956346 0.2669388347082889 Si
  atom_frac 0.2579565868596797 0.7413561482172222 0.7649213557912188 Si
  atom_frac 0.7781587397718780 0.2781259759173019 0.7549138944198889 Si
  atom_frac 0.7367918024721176 0.7757169181541409 0.2338170340786540 Si
  
  -----------------------------------------------------------------------
  Completed first pass over input file geometry.in .
  -----------------------------------------------------------------------
  

  Basic array size parameters:
  | Number of species                 :        1
  | Number of atoms                   :        8
  | Number of lattice vectors         :        3
  | Max. basis fn. angular momentum   :        3
  | Max. atomic/ionic basis occupied n:        3
  | Max. number of basis fn. types    :        3
  | Max. radial fns per species/type  :        5
  | Max. logarithmic grid size        :     1346
  | Max. radial integration grid size :       42
  | Max. angular integration grid size:      302
  | Max. angular grid division number :        8
  | Radial grid for Hartree potential :     1346
  | Number of spin channels           :        1

------------------------------------------------------------
          Reading file control.in.
------------------------------------------------------------
  XC: Using Perdew-Wang parametrisation of Ceperley-Alder LDA.
  Found k-point grid:         4         4         4
  Convergence accuracy of self-consistent charge density:  0.1000E-05
  Scalar relativistic treatment of kinetic energy: on-site free-atom approximation to ZORA.
  Requested output level: MD_light
  Using external wrapper (i-PI) for performing (path integral) molecular dynamics
  **Attention: initial geometry.in file will be ignored!

  Reading configuration options for species Si                  .
  | Found nuclear charge :  14.0000
  | Found atomic mass :    28.085500000000000      amu
  | Found l_max for Hartree potential  :   4
  | Found cutoff potl. onset [A], width [A], scale factor :    3.50000    1.50000    1.00000
  | Threshold for basis-dependent cutoff potential is   0.100000E-03
  | Found data for basic radial integration grid :    42 points, outermost radius =    5.000 A
  | Found multiplier for basic radial grid :   1
  | Found angular grid specification: user-specified.
  | Specified grid contains     5 separate shells.
  | Check grid settings after all constraints further below.
  | Found free-atom valence shell :  3 s   2.000
  | Found free-atom valence shell :  3 p   2.000
  | Found free-ion valence shell :  3 s   1.000
  | Found free-ion valence shell :  3 p   1.000
  | Found hydrogenic basis function :  3 d   4.200
  | Found hydrogenic basis function :  2 p   1.400
  | Found hydrogenic basis function :  4 f   6.200
  | Found ionic basis function :  3 s , default cutoff radius.
  Species Si                  : Missing cutoff potential type.
  Defaulting to exp(1/x)/(1-x)^2 type cutoff potential.
  Species Si: No 'logarithmic' tag. Using default grid for free atom:
  | Default logarithmic grid data [bohr] : 0.1000E-03 0.1000E+03 0.1012E+01
  | Will include ionic basis functions of  2.0-fold positive Si                   ion.
  Species Si: On-site basis accuracy parameter (for Gram-Schmidt orthonormalisation) not specified.
  Using default value basis_acc =  0.1000000E-03.
  Species Si                  : Using default innermost maximum threshold i_radial=  2 for radial functions.
  Species Si                  : Default cutoff onset for free atom density etc. : 0.35000000E+01 AA.
  Species Si                  : Basic radial grid will be enhanced according to radial_multiplier =   1, to contain    42 grid points.

  Finished reading input file 'control.in'.

------------------------------------------------------------


------------------------------------------------------------
          Reading geometry description geometry.in.
------------------------------------------------------------
  | The smallest distance between any two atoms is         2.13781462 AA.
  | The first atom of this pair is atom number                      1 .
  | The second atom of this pair is atom number                     7 .
  | Wigner-Seitz cell of the first atom image           0     0     0 .
  | (The Wigner-Seitz cell of the second atom is 0 0 0  by definition.)

  Symmetry information by spglib:
  | Precision set to  0.1E-04
  | Number of Operations  : 1
  | Space group           : 1
  | International         : P1
  | Schoenflies           : C1^1
  Input structure read successfully.
  The structure contains        8 atoms,  and a total of        112.000 electrons.

  Input geometry:
  | Unit cell:
  |        5.40883259        0.00000000        0.00000000
  |        0.00000000        5.40883257        0.00000000
  |        0.00000000        0.00000000        5.40883257
  | Atomic structure:
  |       Atom                x [A]            y [A]            z [A]
  |    1: Species Si           -0.16374661       -0.02633552       -0.25153707
  |    2: Species Si            0.02379172        2.81815499        2.57863473
  |    3: Species Si            2.81227227        0.00006221        2.85012598
  |    4: Species Si            2.64042786        2.57949128        0.12023502
  |    5: Species Si            1.32439466        1.14519370        1.44382746
  |    6: Species Si            1.39524399        4.00987128        4.13733155
  |    7: Species Si            4.20893035        1.50433684        4.08320286
  |    8: Species Si            3.98518351        4.19572294        1.26467719

  Lattice parameters for 3D lattice (in Angstroms) :     5.408833    5.408833    5.408833
  Angle(s) between unit vectors (in degrees)       :    90.000000   90.000000   90.000000


  Quantities derived from the lattice vectors (in Angstrom^-1):
  | Reciprocal lattice vector 1:  1.161653 -0.000000 -0.000000
  | Reciprocal lattice vector 2: -0.000000  1.161653 -0.000000
  | Reciprocal lattice vector 3: -0.000000 -0.000000  1.161653
  | Unit cell volume                               :   0.158238E+03  Angstrom^3

  Slab Identifier: This seems to be a bulk system.

  Finished reading input file 'geometry.in'.



  Consistency checks for stacksize environment parameter are next.

  | Maximum stacksize for task 0: 63 [Mb]
  | Maximum stacksize for task 1: 63 [Mb]
  | Maximum stacksize for task 2: 63 [Mb]
  | Maximum stacksize for task 3: 63 [Mb]
  | Maximum stacksize for task 4: 63 [Mb]
  | Maximum stacksize for task 5: 63 [Mb]
  | Maximum stacksize for task 6: 63 [Mb]
  | Maximum stacksize for task 7: 63 [Mb]
   *** Stacksize is not set to unlimited. This might cause problems...
  | Current stacksize for task 0: 63 [Mb]
  | Current stacksize for task 1: 63 [Mb]
  | Current stacksize for task 2: 63 [Mb]
  | Current stacksize for task 3: 63 [Mb]
  | Current stacksize for task 4: 63 [Mb]
  | Current stacksize for task 5: 63 [Mb]
  | Current stacksize for task 6: 63 [Mb]
  | Current stacksize for task 7: 63 [Mb]

  Consistency checks for the contents of control.in are next.

  MPI_IN_PLACE appears to work with this MPI implementation.
  | Keeping use_mpi_in_place .true. (see manual).
  Target number of points in a grid batch is not set. Defaulting to  100
  Method for grid partitioning is not set. Defaulting to parallel hash+maxmin partitioning.
  Batch size limit is not set. Defaulting to    200
  By default, will store active basis functions for each batch.
  If in need of memory, prune_basis_once .false. can be used to disable this option.
  communication_type for Hartree potential was not specified.
  Defaulting to calc_hartree .
  Defaulting to Pulay charge density mixer.
  Pulay mixer: Number of relevant iterations not set.
  Defaulting to    8 iterations.
  Pulay mixer: Number of initial linear mixing iterations not set.
  Defaulting to    0 iterations.
  Work space size for distributed Hartree potential not set.
  Defaulting to   0.200000E+03 MB.
  Mixing parameter for charge density mixing has not been set.
  Using default: charge_mix_param =     0.0500.
  The mixing parameter will be adjusted in iteration number     2 of the first full s.c.f. cycle only.
  Algorithm-dependent basis array size parameters:
  | n_max_pulay                         :        8
  Maximum number of self-consistency iterations not provided.
  Presetting  1000 iterations.
  Presetting      1001 iterations before the initial mixing cycle
  is restarted anyway using the sc_init_iter criterion / keyword.
  Presetting a factor      1.000 between actual scf density residual
  and density convergence criterion sc_accuracy_rho below which sc_init_iter
  takes no effect.
  Calculation of forces was not defined in control.in. No forces will be calculated.
  Geometry relaxation not requested: no relaxation will be performed.
  Force calculation: scf convergence accuracy of forces not set.
  Defaulting to 'sc_accuracy_forces not_checked'.
  Handling of forces: Unphysical translation and rotation will be removed from forces.
  No accuracy limit for integral partition fn. given. Defaulting to  0.1000E-14.
  No threshold value for u(r) in integrations given. Defaulting to  0.1000E-05.
  No occupation type (smearing scheme) given. Defaulting to Gaussian broadening, width =  0.1000E-01 eV.
  The width will be adjusted in iteration number     2 of the first full s.c.f. cycle only.
  S.C.F. convergence parameters will be adjusted in iteration number     2 of the first full s.c.f. cycle only.
  No accuracy for occupation numbers given. Defaulting to  0.1000E-12.
  No threshold value for occupation numbers given. Defaulting to  0.0000E+00.
  No accuracy for fermi level given. Defaulting to  0.1000E-19.
  Maximum # of iterations to find E_F not set. Defaulting to  200.
  Preferred method for the eigenvalue solver ('KS_method') not specified in 'control.in'.
  Defaulting to serial version, LAPACK (via ELSI), since more k-points than CPUs available.
  Will not use alltoall communication since running on < 1024 CPUs.
  Threshold for basis singularities not set.
  Default threshold for basis singularities:  0.1000E-04
  partition_type (choice of integration weights) for integrals was not specified.
  | Using a version of the partition function of Stratmann and coworkers ('stratmann_sparse').
  | At each grid point, the set of atoms used to build the partition table is smoothly restricted to
  | only those atoms whose free-atom density would be non-zero at that grid point.
  Partitioning for Hartree potential was not defined. Using partition_type for integrals.
  | Adjusted default value of keyword multip_moments_threshold to:       0.10000000E-11
  | This value may affect high angular momentum components of the Hartree potential in periodic systems.
  Spin handling was not defined in control.in. Defaulting to unpolarized case.
  No q(lm)/r^(l+1) cutoff set for long-range Hartree potential.
  | Using default value of  0.100000E-09 .
  | Verify using the multipole_threshold keyword.
  Defaulting to new monopole extrapolation.
  Density update method: automatic selection selected.
  Using density matrix based charge density update.
  Using density matrix based charge density update.
  Using packed matrix style: index .
  Defaulting to use time-reversal symmetry for k-point grid.
  Charge integration errors on the 3D integration grid will be compensated
  by explicit normalization and distribution of residual charges.
  Use the "compensate_multipole_errors" flag to change this behaviour.
  Set 'collect_eigenvectors' to be '.true.' for all serial calculations. This is mandatory.
  Set 'collect_eigenvectors' to be '.true.' for KS_method lapack_fast and serial.

  Consistency checks for the contents of geometry.in are next.


  Range separation radius for Ewald summation (hartree_convergence_parameter):      3.87147161 bohr.
  Number of empty states per atom not set in control.in - providing a guess from actual geometry.
  | Total number of empty states used during s.c.f. cycle:       24
  If you use a very high smearing, use empty_states (per atom!) in control.in to increase this value.

  Structure-dependent array size parameters: 
  | Maximum number of distinct radial functions  :        9
  | Maximum number of basis functions            :      200
  | Number of Kohn-Sham states (occupied + empty):       80
------------------------------------------------------------

************************** W A R N I N G *******************************
* You are using the PIMD wrapper. Specifications and positions         *
* in geometry.in will be IGNORED - all is received from the wrapper.   *
* Please make sure species are declared in the same order in           *
* geometry.in and wrapper input.                                       *
************************************************************************


  Performing system and environment tests:
  | Environment variable OMP_NUM_THREADS correctly set to 1.
  | Checking for ScaLAPACK...
  | Testing pdtran()...
  | All pdtran() tests passed.

------------------------------------------------------------
          Preparing all fixed parts of the calculation.
------------------------------------------------------------
  Determining machine precision:
     2.2250738585072014E-308
  Setting up grids for atomic and cluster calculations.

  Creating wave function, potential, and density for free atoms.
  Runtime choices for atomic solver:
  | atomic solver xc        : PW-LDA
  | compute density gradient: 0
  | compute kinetic density : F

  Species: Si

  List of occupied orbitals and eigenvalues:
    n    l              occ      energy [Ha]    energy [eV]
    1    0           2.0000       -65.491668     -1782.1190
    2    0           2.0000        -5.087967      -138.4506
    3    0           2.0000        -0.391471       -10.6525
    2    1           6.0000        -3.502246       -95.3010
    3    1           2.0000        -0.143943        -3.9169


  Adding cutoff potential to free-atom effective potential.
  Creating fixed part of basis set: Ionic, confined, hydrogenic.

  Si                   ion:

  List of free ionic orbitals and eigenvalues:
    n    l      energy [Ha]    energy [eV]
    1    0       -66.364436     -1805.8682
    2    0        -5.935799      -161.5213
    3    0        -1.078166       -29.3384
    2    1        -4.351123      -118.4001
    3    1        -0.781733       -21.2720


  List of ionic basis orbitals and eigenvalues:
    n    l      energy [Ha]    energy [eV]    outer radius [A]
    3    0        -1.078146       -29.3378       4.214062


  Si                   hydrogenic:

  List of hydrogenic basis orbitals: 
    n    l      effective z      eigenvalue [eV]  inner max. [A]     outer max. [A]     outer radius [A]   
    3    2         4.200000       -26.6624           1.139231           1.139231           4.534782
    2    1         1.400000        -6.4613           1.472672           1.472672           4.590560
    4    3         6.200000       -32.6778           1.368518           1.368518           4.534782

  Creating atomic-like basis functions for current effective potential.

  Species Si                  :

  List of atomic basis orbitals and eigenvalues:
    n    l      energy [Ha]    energy [eV]    outer radius [A]
    1    0       -65.491668     -1782.1190       0.789468
    2    0        -5.087967      -138.4506       2.815114
    3    0        -0.391471       -10.6525       4.534782
    2    1        -3.502246       -95.3010       3.259919
    3    1        -0.143943        -3.9169       4.590560

  Assembling full basis from fixed parts.
  | Species Si :   atomic orbital   1 s accepted.
  | Species Si :   atomic orbital   2 s accepted.
  | Species Si :    ionic orbital   3 s accepted.
  | Species Si :   atomic orbital   3 s accepted.
  | Species Si :   atomic orbital   2 p accepted.
  | Species Si :   atomic orbital   3 p accepted.
  | Species Si :    hydro orbital   2 p accepted.
  | Species Si :    hydro orbital   3 d accepted.
  | Species Si :    hydro orbital   4 f accepted.

  Basis size parameters after reduction:
  | Total number of radial functions:        9
  | Total number of basis functions :      200

  Per-task memory consumption for arrays in subroutine allocate_ext:
  |           3.106072MB.
  Testing on-site integration grid accuracy.
  |  Species  Function  <phi|h_atom|phi> (log., in eV)  <phi|h_atom|phi> (rad., in eV)
           1        1              -1782.1189727076              -1782.1182429251
           1        2               -138.4506350693               -138.4506310079
           1        3                -10.3030408815                -10.3029120678
           1        4                  5.0238999146                  4.9457540310 ***
           1        5                -95.3009689499                -95.3009689315
           1        6                 -3.9266496564                 -3.9420918374
           1        7                  6.3453628447                  6.1632372158 ***
           1        8                  6.2883050744                  6.2861881409
           1        9                 19.3222464920                 19.3177041052
 * Note: Onsite integrals marked "***" above are less accurate than
 * onsite_accuracy_threshold =    0.03000 eV. Usually, this is harmless.
 * When in doubt, tighten the "radial" and/or "radial_multiplier" flags to check.

  Preparing densities etc. for the partition functions (integrals / Hartree potential).

  Preparations completed.
  max(cpu_time)          :      0.088 s.
  Wall clock time (cpu1) :      0.092 s.
------------------------------------------------------------

  Initializing index lists of integration centers etc. from given atomic structure:
  Mapping all atomic coordinates to central unit cell.

  Initializing the k-points
  Using symmetry for reducing the k-points
  | k-points reduced from:       64 to       36
  | Number of k-points                             :        36
  The eigenvectors in the calculations are COMPLEX.
  | K-points in task   0:         4
  | K-points in task   1:         5
  | K-points in task   2:         5
  | K-points in task   3:         5
  | K-points in task   4:         5
  | K-points in task   5:         4
  | K-points in task   6:         4
  | K-points in task   7:         4
  | Number of basis functions in the Hamiltonian integrals :      3134
  | Number of basis functions in a single unit cell        :       200
  | Number of centers in hartree potential         :      1033
  | Number of centers in hartree multipole         :       505
  | Number of centers in electron density summation:       331
  | Number of centers in basis integrals           :       359
  | Number of centers in integrals                 :       143
  | Number of centers in hamiltonian               :       331
  | Consuming         42 KiB for k_phase.
  | Number of super-cells (origin) [n_cells]                     :         729
  | Number of super-cells (after PM_index) [n_cells]             :          76
  | Number of super-cells in hamiltonian [n_cells_in_hamiltonian]:          76
  | Size of matrix packed + index [n_hamiltonian_matrix_size] :      355268
* Skipping the SCF initialization for now - done inside wrapper      *
  @ DRIVER MODE: Connecting to host:port localhost       10005
  @ DRIVER MODE: Message from server: STATUS      
  @ DRIVER MODE: Message from server: POSDATA     
  @ DRIVER MODE: Received positions 

  Initializing index lists of integration centers etc. from given atomic structure:
  Mapping all atomic coordinates to central unit cell.

  Initializing the k-points
  Using symmetry for reducing the k-points
  | k-points reduced from:       64 to       36
  | Number of k-points                             :        36
  The eigenvectors in the calculations are COMPLEX.
  | K-points in task   0:         4
  | K-points in task   1:         5
  | K-points in task   2:         5
  | K-points in task   3:         5
  | K-points in task   4:         5
  | K-points in task   5:         4
  | K-points in task   6:         4
  | K-points in task   7:         4
  | Number of basis functions in the Hamiltonian integrals :      3134
  | Number of basis functions in a single unit cell        :       200
  | Number of centers in hartree potential         :      1033
  | Number of centers in hartree multipole         :       505
  | Number of centers in electron density summation:       331
  | Number of centers in basis integrals           :       359
  | Number of centers in integrals                 :       143
  | Number of centers in hamiltonian               :       331
  | Consuming         42 KiB for k_phase.
  | Number of super-cells (origin) [n_cells]                     :         729
  | Number of super-cells (after PM_index) [n_cells]             :          76
  | Number of super-cells in hamiltonian [n_cells_in_hamiltonian]:          76
  | Size of matrix packed + index [n_hamiltonian_matrix_size] :      355268

------------------------------------------------------------
          Begin self-consistency loop: Initialization.

          Date     :  20250610, Time     :  150216.662
------------------------------------------------------------
  | Estimated reciprocal-space cutoff momentum G_max:         2.41181531 bohr^-1 .
  | Reciprocal lattice points for long-range Hartree potential:     250
  Partitioning the integration grid into batches with parallel hashing+maxmin method.
  | Number of batches:      548
  | Maximal batch size:     108
  | Minimal batch size:      49
  | Average batch size:      81.810
  | Standard deviation of batch sizes:      18.860

  Integration load balanced across     8 MPI tasks.
  Work distribution over tasks is as follows:
  Task     0 has       5581 integration points.
  Task     1 has       5617 integration points.
  Task     2 has       5564 integration points.
  Task     3 has       5662 integration points.
  Task     4 has       5588 integration points.
  Task     5 has       5652 integration points.
  Task     6 has       5604 integration points.
  Task     7 has       5564 integration points.
  Initializing partition tables, free-atom densities, potentials, etc. across the integration grid (initialize_grid_storage).
  | initialize_grid_storage: Actual outermost partition radius vs. multipole_radius_free
  | (-- VB: in principle, multipole_radius_free should be larger, hence this output)
  | Species        1: Confinement radius =              4.999999999999999 AA, multipole_radius_free =              5.000694715736543 AA.
  | Species        1: outer_partition_radius set to              5.000694715736543 AA .
  | The sparse table of interatomic distances needs        476.86 kbyte instead of      1031.05 kbyte of memory.
  | Net number of integration points:    44832
  | of which are non-zero points    :    38966
  | Numerical average free-atom electrostatic potential    :    -13.29986203 eV
  Renormalizing the initial density to the exact electron count on the 3D integration grid.
  | Initial density: Formal number of electrons (from input files) :     112.0000000000
  | Integrated number of electrons on 3D grid     :     112.0004241601
  | Charge integration error                      :       0.0004241601
  | Normalization factor for density and gradient :       0.9999962129
  Renormalizing the free-atom superposition density to the exact electron count on the 3D integration grid.
  | Formal number of electrons (from input files) :     112.0000000000
  | Integrated number of electrons on 3D grid     :     112.0004241601
  | Charge integration error                      :       0.0004241601
  | Normalization factor for density and gradient :       0.9999962129
  Obtaining max. number of non-zero basis functions in each batch (get_n_compute_maxes).
  | Maximal number of non-zero basis functions:      730 in task     0
  | Maximal number of non-zero basis functions:      701 in task     1
  | Maximal number of non-zero basis functions:      710 in task     2
  | Maximal number of non-zero basis functions:      698 in task     3
  | Maximal number of non-zero basis functions:      679 in task     4
  | Maximal number of non-zero basis functions:      712 in task     5
  | Maximal number of non-zero basis functions:      703 in task     6
  | Maximal number of non-zero basis functions:      700 in task     7
  Allocating        0.977 MB for KS_eigenvector_complex
  Integrating Hamiltonian matrix: batch-based integration.
  Time summed over all CPUs for integration: real work        1.278 s, elapsed        1.451 s
  Integrating overlap matrix.
  Time summed over all CPUs for integration: real work        0.948 s, elapsed        1.097 s
  Decreasing sparse matrix size:
  | Tolerance:  0.1000E-12
  Hamiltonian matrix
  | Array has   324811 nonzero elements out of   355268 elements
  | Sparsity factor is 0.086
  Overlap matrix
  | Array has   313001 nonzero elements out of   355268 elements
  | Sparsity factor is 0.119
  New size of hamiltonian matrix:      324814

  Updating Kohn-Sham eigenvalues and eigenvectors using ELSI and the (modified) LAPACK eigensolver.

  Obtaining occupation numbers and electronic chemical potential using ELSI.
  | Note that, for insulating systems, the printed 'chemical potential' value is not uniquely defined.
  | It can be anywhere in the energy gap, as long as it correctly separates occupied and unoccupied states.
  | In systems with a gap, the physically relevant chemical potential is the VBM or HOMO.

  | Chemical potential (Fermi level):    -5.86872943 eV
  Writing Kohn-Sham eigenvalues.
  K-point:       1 at    0.000000    0.000000    0.000000 (in units of recip. lattice)

  State    Occupation    Eigenvalue [Ha]    Eigenvalue [eV]
      1       2.00000         -65.518635        -1782.85276
      2       2.00000         -65.518215        -1782.84133
      3       2.00000         -65.513958        -1782.72550
      4       2.00000         -65.513406        -1782.71049
      5       2.00000         -65.513270        -1782.70678
      6       2.00000         -65.512154        -1782.67642
      7       2.00000         -65.511434        -1782.65681
      8       2.00000         -65.510100        -1782.62053
      9       2.00000          -5.120538         -139.33692
     10       2.00000          -5.119967         -139.32140
     11       2.00000          -5.115047         -139.18751
     12       2.00000          -5.114412         -139.17023
     13       2.00000          -5.114227         -139.16520
     14       2.00000          -5.112916         -139.12951
     15       2.00000          -5.112072         -139.10657
     16       2.00000          -5.110498         -139.06373
     17       2.00000          -3.536764          -96.24024
     18       2.00000          -3.534854          -96.18828
     19       2.00000          -3.534520          -96.17917
     20       2.00000          -3.533764          -96.15860
     21       2.00000          -3.533146          -96.14179
     22       2.00000          -3.532987          -96.13747
     23       2.00000          -3.529780          -96.05020
     24       2.00000          -3.529175          -96.03374
     25       2.00000          -3.528807          -96.02372
     26       2.00000          -3.528720          -96.02135
     27       2.00000          -3.528655          -96.01958
     28       2.00000          -3.528597          -96.01801
     29       2.00000          -3.528326          -96.01063
     30       2.00000          -3.528112          -96.00482
     31       2.00000          -3.528003          -96.00183
     32       2.00000          -3.527490          -95.98789
     33       2.00000          -3.526903          -95.97191
     34       2.00000          -3.526667          -95.96550
     35       2.00000          -3.526447          -95.95950
     36       2.00000          -3.526137          -95.95108
     37       2.00000          -3.525983          -95.94688
     38       2.00000          -3.525075          -95.92217
     39       2.00000          -3.524492          -95.90631
     40       2.00000          -3.524245          -95.89958
     41       2.00000          -0.672498          -18.29959
     42       2.00000          -0.541792          -14.74292
     43       2.00000          -0.522088          -14.20673
     44       2.00000          -0.519400          -14.13358
     45       2.00000          -0.515636          -14.03117
     46       2.00000          -0.512603          -13.94863
     47       2.00000          -0.502629          -13.67722
     48       2.00000          -0.342331           -9.31530
     49       2.00000          -0.335496           -9.12930
     50       2.00000          -0.333452           -9.07370
     51       2.00000          -0.332251           -9.04102
     52       2.00000          -0.329729           -8.97239
     53       2.00000          -0.324861           -8.83991
     54       2.00000          -0.251227           -6.83624
     55       2.00000          -0.236312           -6.43039
     56       2.00000          -0.217986           -5.93170
     57       0.00000          -0.213386           -5.80653
     58       0.00000          -0.203805           -5.54583
     59       0.00000          -0.202780           -5.51793
     60       0.00000          -0.191405           -5.20838
     61       0.00000          -0.186094           -5.06387
     62       0.00000          -0.183211           -4.98544
     63       0.00000          -0.133419           -3.63051
     64       0.00000          -0.129091           -3.51274
     65       0.00000          -0.121227           -3.29874
     66       0.00000          -0.117894           -3.20807
     67       0.00000           0.044791            1.21884
     68       0.00000           0.061637            1.67722
     69       0.00000           0.064816            1.76372
     70       0.00000           0.126225            3.43475
     71       0.00000           0.134230            3.65258
     72       0.00000           0.144494            3.93187
     73       0.00000           0.151785            4.13028
     74       0.00000           0.153204            4.16889
     75       0.00000           0.161845            4.40401
     76       0.00000           0.171061            4.65480
     77       0.00000           0.173676            4.72596
     78       0.00000           0.186245            5.06798
     79       0.00000           0.187622            5.10545
     80       0.00000           0.194433            5.29080

  What follows are estimated values for band gap, HOMO, LUMO, etc.
  | They are estimated on a discrete k-point grid and not necessarily exact.
  | For converged numbers, create a DOS and/or band structure plot on a denser k-grid.

  Highest occupied state (VBM) at     -5.93169756 eV (relative to internal zero)
  | Occupation number:      2.00000000
  | K-point:       1 at    0.000000    0.000000    0.000000 (in units of recip. lattice)

  Lowest unoccupied state (CBM) at    -5.80653454 eV (relative to internal zero)
  | Occupation number:      0.00000000
  | K-point:       1 at    0.000000    0.000000    0.000000 (in units of recip. lattice)

  ESTIMATED overall HOMO-LUMO gap:      0.12516302 eV between HOMO at k-point 1 and LUMO at k-point 1
  | This appears to be a direct band gap.
  The gap value is rather small. This may be a metal or a small-gap semiconductor.
  Since we use a finite k-point grid, a DOS and/or band structure plot is required
  for an unambiguous assignment.
  Calculating total energy contributions from superposition of free atom densities.

  Total energy components:
  | Sum of eigenvalues            :       -1312.76933388 Ha      -35722.27110391 eV
  | XC energy correction          :        -158.68870202 Ha       -4318.13928641 eV
  | XC potential correction       :         209.65344056 Ha        5704.96038283 eV
  | Free-atom electrostatic energy:       -1053.15323867 Ha      -28657.75771481 eV
  | Hartree energy correction     :          -0.00000000 Ha          -0.00000000 eV
  | Entropy correction            :          -0.00000000 Ha          -0.00000000 eV
  | ---------------------------
  | Total energy                  :       -2314.95783400 Ha      -62993.20772231 eV
  | Total energy, T -> 0          :       -2314.95783400 Ha      -62993.20772231 eV  <-- do not rely on this value for anything but (periodic) metals
  | Electronic free energy        :       -2314.95783400 Ha      -62993.20772231 eV

  Derived energy quantities:
  | Kinetic energy                :        2318.90139234 Ha       63100.51740457 eV
  | Electrostatic energy          :       -4475.17052432 Ha     -121775.58584047 eV
  | Energy correction for multipole
  | error in Hartree potential    :           0.00000000 Ha           0.00000000 eV
  | Sum of eigenvalues per atom                           :       -4465.28388799 eV
  | Total energy (T->0) per atom                          :       -7874.15096529 eV  <-- do not rely on this value for anything but (periodic) metals
  | Electronic free energy per atom                       :       -7874.15096529 eV
  Initialize hartree_potential_storage
  Max. number of atoms included in rho_multipole:            8

  End scf initialization - timings             :  max(cpu_time)    wall_clock(cpu1)
  | Time for scf. initialization                :        0.574 s           0.591 s
  | Boundary condition initialization           :        0.018 s           0.018 s
  | Integration                                 :        0.312 s           0.325 s
  | Solution of K.-S. eqns.                     :        0.115 s           0.115 s
  | Grid partitioning                           :        0.033 s           0.033 s
  | Preloading free-atom quantities on grid     :        0.083 s           0.084 s
  | Free-atom superposition energy              :        0.029 s           0.029 s
  | Total energy evaluation                     :        0.000 s           0.000 s

  Partial memory accounting:
  | Current value for overall tracked memory usage:
  |   Minimum:        7.217 MB (on task 0)
  |   Maximum:        7.461 MB (on task 1)
  |   Average:        7.339 MB
  | Peak value for overall tracked memory usage:
  |   Minimum:       13.238 MB (on task 4 after allocating wave)
  |   Maximum:       13.668 MB (on task 0 after allocating wave)
  |   Average:       13.444 MB
  | Largest tracked array allocation so far:
  |   Minimum:        3.517 MB (hamiltonian_shell on task 4)
  |   Maximum:        4.066 MB (hamiltonian_shell on task 0)
  |   Average:        3.784 MB
  Note:  These values currently only include a subset of arrays which are explicitly tracked.
  The "true" memory usage will be greater.
------------------------------------------------------------
  Time for density update prior                :  max(cpu_time)    wall_clock(cpu1)
  | self-consistency iterative process          :        0.193 s           0.195 s
------------------------------------------------------------
Convergence:    q app. |  density  | eigen (eV) | Etot (eV) | forces (eV/A) |       CPU time |     Clock time
  SCF    1 : -0.57E-13 |  0.23E+00 |   0.46E+01 |  0.10E+00 |             . |        0.518 s |        0.532 s
  SCF    2 : -0.91E-14 |  0.21E+00 |   0.71E+02 |  0.66E+00 |             . |        0.558 s |        0.574 s
  SCF    3 : -0.49E-13 |  0.36E-01 |  -0.22E+02 |  0.46E-01 |             . |        0.527 s |        0.536 s
  SCF    4 :  0.71E-13 |  0.22E-01 |  -0.14E+00 |  0.98E-04 |             . |        0.542 s |        0.552 s
  SCF    5 :  0.21E-12 |  0.12E-01 |  -0.57E+01 |  0.10E-01 |             . |        0.544 s |        0.584 s
  SCF    6 :  0.17E-12 |  0.39E-02 |  -0.37E+00 |  0.49E-03 |             . |        0.515 s |        0.524 s
  SCF    7 :  0.18E-13 |  0.36E-02 |  -0.25E+00 |  0.12E-02 |             . |        0.530 s |        0.540 s
  SCF    8 :  0.29E-13 |  0.13E-02 |   0.16E+00 |  0.72E-04 |             . |        0.559 s |        0.587 s
  SCF    9 :  0.11E-12 |  0.84E-03 |  -0.41E-01 |  0.75E-04 |             . |        0.538 s |        0.550 s
  SCF   10 :  0.12E-12 |  0.25E-03 |   0.70E-02 |  0.18E-04 |             . |        0.575 s |        0.610 s
  SCF   11 :  0.71E-13 |  0.37E-04 |   0.65E-03 |  0.10E-05 |             . |        0.554 s |        0.560 s
  SCF   12 : -0.65E-13 |  0.35E-04 |   0.85E-02 |  0.42E-05 |             . |        0.566 s |        0.607 s
  SCF   13 : -0.41E-13 |  0.12E-04 |   0.50E-03 |  0.10E-06 |             . |        0.525 s |        0.531 s
  SCF   14 :  0.92E-14 |  0.10E-04 |   0.20E-02 |  0.26E-05 |             . |        0.553 s |        0.562 s
  SCF   15 :  0.12E-13 |  0.25E-05 |  -0.26E-03 |  0.20E-06 |             . |        0.524 s |        0.531 s
  SCF   16 :  0.87E-13 |  0.24E-05 |  -0.37E-03 |  0.41E-06 |             . |        0.531 s |        0.555 s
  SCF   17 :  0.39E-13 |  0.22E-05 |  -0.11E-03 |  0.12E-06 |             . |        0.543 s |        0.552 s
  SCF   18 :  0.15E-13 |  0.20E-05 |  -0.47E-04 | -0.10E-07 |             . |        0.523 s |        0.542 s
  SCF   19 :  0.17E-12 |  0.19E-05 |   0.85E-03 | -0.28E-06 |             . |        0.531 s |        0.551 s
  SCF   20 : -0.57E-13 |  0.46E-06 |  -0.49E-06 |  0.35E-08 |             . |        0.511 s |        0.522 s
  SCF   21 :  0.21E-12 |  0.44E-06 |  -0.39E-04 |  0.90E-07 |      0.17E+01 |        2.662 s |        2.651 s

  Total energy components:
  | Sum of eigenvalues            :       -1311.01521259 Ha      -35674.53903517 eV
  | XC energy correction          :        -158.81933242 Ha       -4321.69392054 eV
  | XC potential correction       :         209.82497737 Ha        5709.62813704 eV
  | Free-atom electrostatic energy:       -1053.15323867 Ha      -28657.75771481 eV
  | Hartree energy correction     :          -1.76500907 Ha         -48.02834041 eV
  | Entropy correction            :          -0.00000589 Ha          -0.00016024 eV
  | ---------------------------
  | Total energy                  :       -2314.92781537 Ha      -62992.39087390 eV
  | Total energy, T -> 0          :       -2314.92782126 Ha      -62992.39103414 eV  <-- do not rely on this value for anything but (periodic) metals
  | Electronic free energy        :       -2314.92782715 Ha      -62992.39119438 eV

  Derived energy quantities:
  | Kinetic energy                :        2318.22358895 Ha       63082.07343602 eV
  | Electrostatic energy          :       -4474.33207191 Ha     -121752.77038938 eV
  | Energy correction for multipole
  | error in Hartree potential    :           0.05260708 Ha           1.43151159 eV
  | Sum of eigenvalues per atom                           :       -4459.31737940 eV
  | Total energy (T->0) per atom                          :       -7874.04887927 eV  <-- do not rely on this value for anything but (periodic) metals
  | Electronic free energy per atom                       :       -7874.04889930 eV
  What follows are estimated values for band gap, HOMO, LUMO, etc.
  | They are estimated on a discrete k-point grid and not necessarily exact.
  | For converged numbers, create a DOS and/or band structure plot on a denser k-grid.

  Highest occupied state (VBM) at     -5.70762860 eV (relative to internal zero)
  | Occupation number:      1.84513956
  | K-point:       1 at    0.000000    0.000000    0.000000 (in units of recip. lattice)

  Lowest unoccupied state (CBM) at    -5.60703754 eV (relative to internal zero)
  | Occupation number:      0.15485986
  | K-point:       1 at    0.000000    0.000000    0.000000 (in units of recip. lattice)

  ESTIMATED overall HOMO-LUMO gap:      0.10059106 eV between HOMO at k-point 1 and LUMO at k-point 1
  | This appears to be a direct band gap.
  However, this system has fractional occupation numbers. Since we use a finite k-point grid,
  this material is metallic within the approximate finite broadening function (occupation_type)
  applied to determine the occupation numbers.

  | Chemical Potential                          :    -5.65733310 eV
  | Note that, for insulating systems, the printed 'chemical potential' value is not uniquely defined.
  | It can be anywhere in the energy gap, as long as it correctly separates occupied and unoccupied states.
  | In systems with a gap, the physically relevant chemical potential is the VBM or HOMO.

  Self-consistency cycle converged.

  Removing unitary transformations (pure translations, rotations) from forces on atoms.
  Atomic forces before filtering:
  | Net force on center of mass :   0.413259E-02  0.307823E-02  0.598536E-02 eV/A
  Atomic forces after filtering:
  | Net force on center of mass :   0.892031E-16  0.000000E+00 -0.401414E-15 eV/A

  Energy and forces in a compact form:
  | Total energy uncorrected      :         -0.629923908738976E+05 eV
  | Total energy corrected        :         -0.629923910341391E+05 eV  <-- do not rely on this value for anything but (periodic) metals
  | Electronic free energy        :         -0.629923911943806E+05 eV
  Total atomic forces (unitary forces cleaned) [eV/Ang]:
  |    1          0.229702907253854E+01         -0.941169645094044E+00          0.237099534310622E+01
  |    2          0.497454245292607E+00         -0.141097444020742E+00          0.126786992905384E-01
  |    3         -0.314754561601470E+00          0.272380771092939E+00          0.905278455173898E-01
  |    4          0.336608997916129E+00          0.302319101464264E+00          0.461281904302936E-02
  |    5         -0.715821800097931E+00          0.398136756861277E+00         -0.597557513032757E+00
  |    6         -0.238989093677278E-02         -0.306718503007474E+00         -0.777506426059586E+00
  |    7         -0.200904612381835E+01          0.155612060551585E+01         -0.141804135477162E+01
  |    8         -0.890799392927611E-01         -0.113997164281207E+01          0.314290586906784E+00

  Removing unitary transformations (pure translations, rotations) from forces on atoms.
  Atomic forces before filtering:
  | Net force on center of mass :   0.892031E-16  0.000000E+00 -0.401414E-15 eV/A
  Atomic forces after filtering:
  | Net force on center of mass :   0.133805E-15  0.000000E+00 -0.401414E-15 eV/A
  @ DRIVER - WARNING: the stress tensor will not be computed
 ------------------------------------------------------------------------
 Atomic structure that was used in the preceding time step of the wrapper
                         x [A]             y [A]             z [A]
  lattice_vector         5.40883258        0.00000000        0.00000000
  lattice_vector         0.00000000        5.40883257        0.00000000
  lattice_vector         0.00000000        0.00000000        5.40883257

            atom        -0.16374661       -0.02633552       -0.25153707  Si
            atom         0.02379172        2.81815499        2.57863473  Si
            atom         2.81227227        0.00006221        2.85012598  Si
            atom         2.64042786        2.57949128        0.12023502  Si
            atom         1.32439466        1.14519370        1.44382746  Si
            atom         1.39524399        4.00987128        4.13733154  Si
            atom         4.20893035        1.50433684        4.08320286  Si
            atom         3.98518351        4.19572293        1.26467719  Si
 ------------------------------------------------------------------------
  @ DRIVER MODE: Message from server: STATUS      
  @ DRIVER MODE: Message from server: GETFORCE    
  @ DRIVER MODE: Returning v,forces,stress 

------------------------------------------------------------------------------
  Final output of selected total energy values:

  The following output summarizes some interesting total energy values
  at the end of a run (AFTER all relaxation, molecular dynamics, etc.).

  | Total energy of the DFT / Hartree-Fock s.c.f. calculation      :         -62992.390873898 eV
  | Final zero-broadening corrected energy (caution - metals only) :         -62992.391034139 eV
  | For reference only, the value of 1 Hartree used in FHI-aims is :             27.211384500 eV
  | For reference only, the overall average (free atom contribution
  | + realspace contribution) of the electrostatic potential after
  | s.c.f. convergence is                                          :            -13.038468032 eV

  Before relying on these values, please be sure to understand exactly which
  total energy value is referred to by a given number. Different objects may
  all carry the same name 'total energy'. Definitions:

  Total energy of the DFT / Hartree-Fock s.c.f. calculation:
  | Note that this energy does not include ANY quantities calculated after the
  | s.c.f. cycle, in particular not ANY RPA, MP2, etc. many-body perturbation terms.

  Final zero-broadening corrected energy:
  | For metallic systems only, a broadening of the occupation numbers at the Fermi
  | level can be extrapolated back to zero broadening by an electron-gas inspired
  | formula. For all systems that are not real metals, this value can be
  | meaningless and should be avoided.

------------------------------------------------------------------------------
  Methods described in the following list of references were used in this FHI-aims run.
  If you publish the results, please make sure to cite these reference if they apply.
  FHI-aims is an academic code, and for our developers (often, Ph.D. students
  and postdocs), scientific credit in the community is essential.
  Thank you for helping us!

  For any use of FHI-aims, please cite:

    Volker Blum, Ralf Gehrke, Felix Hanke, Paula Havu, Ville Havu,
    Xinguo Ren, Karsten Reuter, and Matthias Scheffler
    'Ab initio molecular simulations with numeric atom-centered orbitals'
    Computer Physics Communications 180, 2175-2196 (2009)
    http://doi.org/10.1016/j.cpc.2009.06.022


  The provided symmetry information was generated with SPGlib:

    Atsushi Togo, Yusuke Seto, Dimitar Pashov
    SPGlib 1.7.3 obtained from http://spglib.sourceforge.net
    Licence: New BSD license
    Copyright (C) 2008 Atsushi Togo


  The ELSI infrastructure was used in your run to solve the Kohn-Sham electronic structure.
  Please check out http://elsi-interchange.org to learn more.
  If scalability is important for your project, please acknowledge ELSI by citing:

    V. W-z. Yu, F. Corsetti, A. Garcia, W. P. Huhn, M. Jacquelin, W. Jia,
    B. Lange, L. Lin, J. Lu, W. Mi, A. Seifitokaldani, A. Vazquez-Mayagoitia,
    C. Yang, H. Yang, and V. Blum
    'ELSI: A unified software interface for Kohn-Sham electronic structure solvers'
    Computer Physics Communications 222, 267-285 (2018).
    http://doi.org/10.1016/j.cpc.2017.09.007


  For the real-space grid partitioning and parallelization used in this calculation, please cite:

    Ville Havu, Volker Blum, Paula Havu, and Matthias Scheffler,
    'Efficient O(N) integration for all-electron electronic structure calculation'
    'using numerically tabulated basis functions'
    Journal of Computational Physics 228, 8367-8379 (2009).
    http://doi.org/10.1016/j.jcp.2009.08.008

  Of course, there are many other important community references, e.g., those cited in the
  above references. Our list is limited to references that describe implementations in the
  FHI-aims code. The reason is purely practical (length of this list) - please credit others as well.

------------------------------------------------------------
          Leaving FHI-aims.
          Date     :  20250610, Time     :  150231.327

          Computational steps:
          | Number of self-consistency cycles          :           21
          | Number of SCF (re)initializations          :            1

          Detailed time accounting                     :  max(cpu_time)    wall_clock(cpu1)
          | Total time                                  :       14.281 s          14.871 s
          | Preparation time                            :        0.088 s           0.092 s
          | Boundary condition initalization            :        0.018 s           0.018 s
          | Grid partitioning                           :        0.033 s           0.033 s
          | Preloading free-atom quantities on grid     :        0.083 s           0.084 s
          | Free-atom superposition energy              :        0.029 s           0.029 s
          | Total time for integrations                 :        4.112 s           4.211 s
          | Total time for solution of K.-S. equations  :        1.743 s           1.758 s
          | Total time for density & force components   :        5.752 s           5.804 s
          | Total time for mixing                       :        0.009 s           0.010 s
          | Total time for Hartree multipole update     :        0.027 s           0.026 s
          | Total time for Hartree multipole sum        :        1.975 s           2.028 s
          | Total time for total energy evaluation      :        0.001 s           0.004 s
          | Total time NSC force correction             :        0.516 s           0.542 s
          | Total time for scaled ZORA corrections      :        0.000 s           0.000 s

          Partial memory accounting:
          | Residual value for overall tracked memory usage across tasks:     0.000000 MB (should be 0.000000 MB)
          | Peak values for overall tracked memory usage:
          |   Minimum:       19.624 MB (on task 4 after allocating d_wave)
          |   Maximum:       20.515 MB (on task 0 after allocating d_wave)
          |   Average:       20.061 MB
          | Largest tracked array allocation:
          |   Minimum:        3.517 MB (hamiltonian_shell on task 4)
          |   Maximum:        4.066 MB (hamiltonian_shell on task 0)
          |   Average:        3.784 MB
          Note:  These values currently only include a subset of arrays which are explicitly tracked.
          The "true" memory usage will be greater.

          Have a nice day.
------------------------------------------------------------
