------------------------------------------------------------
          Invoking FHI-aims ...

          When using FHI-aims, please cite the following reference:

            Volker Blum, Ralf Gehrke, Felix Hanke, Paula Havu,
            Ville Havu, Xinguo Ren, Karsten Reuter, and Matthias Scheffler,
            'Ab Initio Molecular Simulations with Numeric Atom-Centered Orbitals',
            Computer Physics Communications 180, 2175-2196 (2009)

          In addition, many other developments in FHI-aims are likely important for
          your particular application. If so, please cite them. A partial list of references
          is written at the end of this file. Thank you for giving credit to the authors
          of these developments.

          For general information about FHI-aims please find us at

            https://fhi-aims.org

          Online tutorials can be found at

            https://fhi-aims-club.gitlab.io/tutorials/tutorials-overview/

          For any questions about FHI-aims, please visit our slack channel at

            https://fhi-aims.slack.com

          and our main development and support site at

            https://aims-git.rz-berlin.mpg.de .

          The latter site, in particular, has a wiki to collect information, as well
          as an issue tracker to log discussions, suggest improvements, and report issues
          or bugs. https://aims-git.rz-berlin.mpg.de is also the main development site
          of the project and all new and updated code versions can be obtained there.
          Please send an email to aims-coordinators@fhi-berlin.mpg.de and we will add
          you to these sites. They are for you and everyone is welcome there.

------------------------------------------------------------



  Date     :  20250610, Time     :  145610.962
  Time zero on CPU 1             :   0.917340000000000E-01  s.
  Internal wall clock time zero  :           518799370.962  s.

  FHI-aims created a unique identifier for this run for later identification
  aims_uuid : D87F4DBD-6F34-4BFA-AABF-5C428495D1E0

  Build configuration of the current instance of FHI-aims
  -------------------------------------------------------
  FHI-aims version      : 240206
  Commit number         : 583c55b2e
  CMake host system     : Darwin-23.4.0
  CMake version         : 3.29.1
  Fortran compiler      : /opt/homebrew/bin/mpif90 (GNU) version 13.2.0
  Fortran compiler flags: -O3 -fallow-argument-mismatch -ffree-line-length-none -framework accelerate
  C compiler            : /opt/homebrew/bin/mpicc (AppleClang) version 15.0.0.15000309
  C compiler flags      : -O3 -framework accelerate
  C++ compiler          : /opt/homebrew/bin/mpic++ (AppleClang) version 15.0.0.15000309
  C++ compiler flags    : -O3 -framework accelerate
  HIP compiler          :
  HIP compiler flags    :
  HIP GPU arch          :
  Using MPI
  Using ScaLAPACK
  Using LibXC
  Using i-PI
  Using RLSY
  Linking against: /Users/carbogno/Codes/2023_Scalapack/libscalapack.a

  Using        8 parallel tasks.
  Task        0 on host ThMac05.local reporting.
  Task        1 on host ThMac05.local reporting.
  Task        2 on host ThMac05.local reporting.
  Task        3 on host ThMac05.local reporting.
  Task        4 on host ThMac05.local reporting.
  Task        5 on host ThMac05.local reporting.
  Task        6 on host ThMac05.local reporting.
  Task        7 on host ThMac05.local reporting.

  Memory overcommitment: We could not find /proc/sys/vm/overcommit_memory on your system.

  Obtaining array dimensions for all initial allocations:
  
  -----------------------------------------------------------------------
  Parsing control.in (first pass over file, find array dimensions only).
  The contents of control.in will be repeated verbatim below
  unless switched off by setting 'verbatim_writeout .false.' .
  in the first line of control.in .
  -----------------------------------------------------------------------
  
  #===============================================================================
  # FHI-aims file: ./control.in
  # Created using the Atomic Simulation Environment (ASE)
  # Tue Jun 10 14:56:10 2025
  #===============================================================================
  xc                                 pw-lda
  k_grid                             4 4 4
  sc_accuracy_rho                    1e-06
  relativistic                       atomic_zora scalar
  output_level                       MD_light
  use_pimd_wrapper                   localhost 10005
  #===============================================================================
  
  ################################################################################
  #
  #  FHI-aims code project
  #  VB, Fritz-Haber Institut, 2009
  #
  #  Suggested "light" defaults for Si atom (to be pasted into control.in file)
  #  Be sure to double-check any results obtained with these settings for post-processing,
  #  e.g., with the "tight" defaults and larger basis sets.
  #
  #  2020/09/08 Added f function to "light" after reinspection of Delta test outcomes.
  #             This was done for all of Al-Cl and is a tricky decision since it makes
  #             "light" calculations measurably more expensive for these elements.
  #             Nevertheless, outcomes for P, S, Cl (and to some extent, Si) appear
  #             to justify this choice.
  #
  ################################################################################
    species        Si
  #     global species definitions
      nucleus             14
      mass                28.0855
  #
      l_hartree           4
  #
      cut_pot             3.5          1.5  1.0
      basis_dep_cutoff    1e-4
  #
      radial_base         42 5.0
      radial_multiplier   1
      angular_grids       specified
        division   0.5866   50
        division   0.9616  110
        division   1.2249  194
        division   1.3795  302
  #      division   1.4810  434
  #      division   1.5529  590
  #      division   1.6284  770
  #      division   1.7077  974
  #      division   2.4068 1202
  #      outer_grid   974
        outer_grid 302
  ################################################################################
  #
  #  Definition of "minimal" basis
  #
  ################################################################################
  #     valence basis states
      valence      3  s   2.
      valence      3  p   2.
  #     ion occupancy
      ion_occ      3  s   1.
      ion_occ      3  p   1.
  ################################################################################
  #
  #  Suggested additional basis functions. For production calculations,
  #  uncomment them one after another (the most important basis functions are
  #  listed first).
  #
  #  Constructed for dimers: 1.75 A, 2.0 A, 2.25 A, 2.75 A, 3.75 A
  #
  ################################################################################
  #  "First tier" - improvements: -571.96 meV to -37.03 meV
       hydro 3 d 4.2
       hydro 2 p 1.4
       hydro 4 f 6.2
       ionic 3 s auto
  #  "Second tier" - improvements: -16.76 meV to -3.03 meV
  #     hydro 3 d 9
  #     hydro 5 g 9.4
  #     hydro 4 p 4
  #     hydro 1 s 0.65
  #  "Third tier" - improvements: -3.89 meV to -0.60 meV
  #     ionic 3 d auto
  #     hydro 3 s 2.6
  #     hydro 4 f 8.4
  #     hydro 3 d 3.4
  #     hydro 3 p 7.8
  #  "Fourth tier" - improvements: -0.33 meV to -0.11 meV
  #     hydro 2 p 1.6
  #     hydro 5 g 10.8
  #     hydro 5 f 11.2
  #     hydro 3 d 1
  #     hydro 4 s 4.5
  #  Further basis functions that fell out of the optimization - noise
  #  level... < -0.08 meV
  #     hydro 4 d 6.6
  #     hydro 5 g 16.4
  #     hydro 4 d 9
  
  -----------------------------------------------------------------------
  Completed first pass over input file control.in .
  -----------------------------------------------------------------------
  
  
  -----------------------------------------------------------------------
  Parsing geometry.in (first pass over file, find array dimensions only).
  The contents of geometry.in will be repeated verbatim below
  unless switched off by setting 'verbatim_writeout .false.' .
  in the first line of geometry.in .
  -----------------------------------------------------------------------
  
  #=======================================================
  # FHI-aims file: ./geometry.in
  # Created using the Atomic Simulation Environment (ASE)
  # Tue Jun 10 14:56:10 2025
  #=======================================================
  lattice_vector 5.4088325884509993 0.0000000000639995 0.0000000001369997
  lattice_vector 0.0000000000629998 5.4088325742939993 0.0000000001030003
  lattice_vector 0.0000000001370002 0.0000000001020002 5.4088325742309999
  atom_frac 0.0298497162567305 0.0285075416108509 0.0051183342627530 Si
  atom_frac -0.0302816559247921 0.5021538648194853 0.5092380241995585 Si
  atom_frac 0.4813021437530628 -0.0291780889644102 0.5283781089582346 Si
  atom_frac 0.5072613411528787 0.4976205086325234 -0.0216803117372052 Si
  atom_frac 0.2723146449849548 0.2747082585000504 0.2728046408312588 Si
  atom_frac 0.2322595816526909 0.7273589148743670 0.7542468900493721 Si
  atom_frac 0.7546914655763483 0.2340657302786103 0.7285523634004005 Si
  atom_frac 0.7526027625193756 0.7647632702507218 0.2233419500352795 Si
  
  -----------------------------------------------------------------------
  Completed first pass over input file geometry.in .
  -----------------------------------------------------------------------
  

  Basic array size parameters:
  | Number of species                 :        1
  | Number of atoms                   :        8
  | Number of lattice vectors         :        3
  | Max. basis fn. angular momentum   :        3
  | Max. atomic/ionic basis occupied n:        3
  | Max. number of basis fn. types    :        3
  | Max. radial fns per species/type  :        5
  | Max. logarithmic grid size        :     1346
  | Max. radial integration grid size :       42
  | Max. angular integration grid size:      302
  | Max. angular grid division number :        8
  | Radial grid for Hartree potential :     1346
  | Number of spin channels           :        1

------------------------------------------------------------
          Reading file control.in.
------------------------------------------------------------
  XC: Using Perdew-Wang parametrisation of Ceperley-Alder LDA.
  Found k-point grid:         4         4         4
  Convergence accuracy of self-consistent charge density:  0.1000E-05
  Scalar relativistic treatment of kinetic energy: on-site free-atom approximation to ZORA.
  Requested output level: MD_light
  Using external wrapper (i-PI) for performing (path integral) molecular dynamics
  **Attention: initial geometry.in file will be ignored!

  Reading configuration options for species Si                  .
  | Found nuclear charge :  14.0000
  | Found atomic mass :    28.085500000000000      amu
  | Found l_max for Hartree potential  :   4
  | Found cutoff potl. onset [A], width [A], scale factor :    3.50000    1.50000    1.00000
  | Threshold for basis-dependent cutoff potential is   0.100000E-03
  | Found data for basic radial integration grid :    42 points, outermost radius =    5.000 A
  | Found multiplier for basic radial grid :   1
  | Found angular grid specification: user-specified.
  | Specified grid contains     5 separate shells.
  | Check grid settings after all constraints further below.
  | Found free-atom valence shell :  3 s   2.000
  | Found free-atom valence shell :  3 p   2.000
  | Found free-ion valence shell :  3 s   1.000
  | Found free-ion valence shell :  3 p   1.000
  | Found hydrogenic basis function :  3 d   4.200
  | Found hydrogenic basis function :  2 p   1.400
  | Found hydrogenic basis function :  4 f   6.200
  | Found ionic basis function :  3 s , default cutoff radius.
  Species Si                  : Missing cutoff potential type.
  Defaulting to exp(1/x)/(1-x)^2 type cutoff potential.
  Species Si: No 'logarithmic' tag. Using default grid for free atom:
  | Default logarithmic grid data [bohr] : 0.1000E-03 0.1000E+03 0.1012E+01
  | Will include ionic basis functions of  2.0-fold positive Si                   ion.
  Species Si: On-site basis accuracy parameter (for Gram-Schmidt orthonormalisation) not specified.
  Using default value basis_acc =  0.1000000E-03.
  Species Si                  : Using default innermost maximum threshold i_radial=  2 for radial functions.
  Species Si                  : Default cutoff onset for free atom density etc. : 0.35000000E+01 AA.
  Species Si                  : Basic radial grid will be enhanced according to radial_multiplier =   1, to contain    42 grid points.

  Finished reading input file 'control.in'.

------------------------------------------------------------


------------------------------------------------------------
          Reading geometry description geometry.in.
------------------------------------------------------------
  | The smallest distance between any two atoms is         2.20509677 AA.
  | The first atom of this pair is atom number                      2 .
  | The second atom of this pair is atom number                     7 .
  | Wigner-Seitz cell of the first atom image           0     1     0 .
  | (The Wigner-Seitz cell of the second atom is 0 0 0  by definition.)

  Symmetry information by spglib:
  | Precision set to  0.1E-04
  | Number of Operations  : 1
  | Space group           : 1
  | International         : P1
  | Schoenflies           : C1^1
  Input structure read successfully.
  The structure contains        8 atoms,  and a total of        112.000 electrons.

  Input geometry:
  | Unit cell:
  |        5.40883259        0.00000000        0.00000000
  |        0.00000000        5.40883257        0.00000000
  |        0.00000000        0.00000000        5.40883257
  | Atomic structure:
  |       Atom                x [A]            y [A]            z [A]
  |    1: Species Si            0.16145212        0.15419252        0.02768421
  |    2: Species Si           -0.16378841        2.71606618        2.75438321
  |    3: Species Si            2.60328272       -0.15781940        2.85790873
  |    4: Species Si            2.74369167        2.69154602       -0.11726518
  |    5: Species Si            1.47290433        1.48585098        1.47555463
  |    6: Species Si            1.25625319        3.93416259        4.07959515
  |    7: Species Si            4.08199979        1.26602235        3.94061776
  |    8: Species Si            4.07070235        4.13647649        1.20801921

  Lattice parameters for 3D lattice (in Angstroms) :     5.408833    5.408833    5.408833
  Angle(s) between unit vectors (in degrees)       :    90.000000   90.000000   90.000000


  Quantities derived from the lattice vectors (in Angstrom^-1):
  | Reciprocal lattice vector 1:  1.161653 -0.000000 -0.000000
  | Reciprocal lattice vector 2: -0.000000  1.161653 -0.000000
  | Reciprocal lattice vector 3: -0.000000 -0.000000  1.161653
  | Unit cell volume                               :   0.158238E+03  Angstrom^3

  Slab Identifier: This seems to be a bulk system.

  Finished reading input file 'geometry.in'.



  Consistency checks for stacksize environment parameter are next.

  | Maximum stacksize for task 0: 63 [Mb]
  | Maximum stacksize for task 1: 63 [Mb]
  | Maximum stacksize for task 2: 63 [Mb]
  | Maximum stacksize for task 3: 63 [Mb]
  | Maximum stacksize for task 4: 63 [Mb]
  | Maximum stacksize for task 5: 63 [Mb]
  | Maximum stacksize for task 6: 63 [Mb]
  | Maximum stacksize for task 7: 63 [Mb]
   *** Stacksize is not set to unlimited. This might cause problems...
  | Current stacksize for task 0: 63 [Mb]
  | Current stacksize for task 1: 63 [Mb]
  | Current stacksize for task 2: 63 [Mb]
  | Current stacksize for task 3: 63 [Mb]
  | Current stacksize for task 4: 63 [Mb]
  | Current stacksize for task 5: 63 [Mb]
  | Current stacksize for task 6: 63 [Mb]
  | Current stacksize for task 7: 63 [Mb]

  Consistency checks for the contents of control.in are next.

  MPI_IN_PLACE appears to work with this MPI implementation.
  | Keeping use_mpi_in_place .true. (see manual).
  Target number of points in a grid batch is not set. Defaulting to  100
  Method for grid partitioning is not set. Defaulting to parallel hash+maxmin partitioning.
  Batch size limit is not set. Defaulting to    200
  By default, will store active basis functions for each batch.
  If in need of memory, prune_basis_once .false. can be used to disable this option.
  communication_type for Hartree potential was not specified.
  Defaulting to calc_hartree .
  Defaulting to Pulay charge density mixer.
  Pulay mixer: Number of relevant iterations not set.
  Defaulting to    8 iterations.
  Pulay mixer: Number of initial linear mixing iterations not set.
  Defaulting to    0 iterations.
  Work space size for distributed Hartree potential not set.
  Defaulting to   0.200000E+03 MB.
  Mixing parameter for charge density mixing has not been set.
  Using default: charge_mix_param =     0.0500.
  The mixing parameter will be adjusted in iteration number     2 of the first full s.c.f. cycle only.
  Algorithm-dependent basis array size parameters:
  | n_max_pulay                         :        8
  Maximum number of self-consistency iterations not provided.
  Presetting  1000 iterations.
  Presetting      1001 iterations before the initial mixing cycle
  is restarted anyway using the sc_init_iter criterion / keyword.
  Presetting a factor      1.000 between actual scf density residual
  and density convergence criterion sc_accuracy_rho below which sc_init_iter
  takes no effect.
  Calculation of forces was not defined in control.in. No forces will be calculated.
  Geometry relaxation not requested: no relaxation will be performed.
  Force calculation: scf convergence accuracy of forces not set.
  Defaulting to 'sc_accuracy_forces not_checked'.
  Handling of forces: Unphysical translation and rotation will be removed from forces.
  No accuracy limit for integral partition fn. given. Defaulting to  0.1000E-14.
  No threshold value for u(r) in integrations given. Defaulting to  0.1000E-05.
  No occupation type (smearing scheme) given. Defaulting to Gaussian broadening, width =  0.1000E-01 eV.
  The width will be adjusted in iteration number     2 of the first full s.c.f. cycle only.
  S.C.F. convergence parameters will be adjusted in iteration number     2 of the first full s.c.f. cycle only.
  No accuracy for occupation numbers given. Defaulting to  0.1000E-12.
  No threshold value for occupation numbers given. Defaulting to  0.0000E+00.
  No accuracy for fermi level given. Defaulting to  0.1000E-19.
  Maximum # of iterations to find E_F not set. Defaulting to  200.
  Preferred method for the eigenvalue solver ('KS_method') not specified in 'control.in'.
  Defaulting to serial version, LAPACK (via ELSI), since more k-points than CPUs available.
  Will not use alltoall communication since running on < 1024 CPUs.
  Threshold for basis singularities not set.
  Default threshold for basis singularities:  0.1000E-04
  partition_type (choice of integration weights) for integrals was not specified.
  | Using a version of the partition function of Stratmann and coworkers ('stratmann_sparse').
  | At each grid point, the set of atoms used to build the partition table is smoothly restricted to
  | only those atoms whose free-atom density would be non-zero at that grid point.
  Partitioning for Hartree potential was not defined. Using partition_type for integrals.
  | Adjusted default value of keyword multip_moments_threshold to:       0.10000000E-11
  | This value may affect high angular momentum components of the Hartree potential in periodic systems.
  Spin handling was not defined in control.in. Defaulting to unpolarized case.
  No q(lm)/r^(l+1) cutoff set for long-range Hartree potential.
  | Using default value of  0.100000E-09 .
  | Verify using the multipole_threshold keyword.
  Defaulting to new monopole extrapolation.
  Density update method: automatic selection selected.
  Using density matrix based charge density update.
  Using density matrix based charge density update.
  Using packed matrix style: index .
  Defaulting to use time-reversal symmetry for k-point grid.
  Charge integration errors on the 3D integration grid will be compensated
  by explicit normalization and distribution of residual charges.
  Use the "compensate_multipole_errors" flag to change this behaviour.
  Set 'collect_eigenvectors' to be '.true.' for all serial calculations. This is mandatory.
  Set 'collect_eigenvectors' to be '.true.' for KS_method lapack_fast and serial.

  Consistency checks for the contents of geometry.in are next.


  Range separation radius for Ewald summation (hartree_convergence_parameter):      3.87147161 bohr.
  Number of empty states per atom not set in control.in - providing a guess from actual geometry.
  | Total number of empty states used during s.c.f. cycle:       24
  If you use a very high smearing, use empty_states (per atom!) in control.in to increase this value.

  Structure-dependent array size parameters: 
  | Maximum number of distinct radial functions  :        9
  | Maximum number of basis functions            :      200
  | Number of Kohn-Sham states (occupied + empty):       80
------------------------------------------------------------

************************** W A R N I N G *******************************
* You are using the PIMD wrapper. Specifications and positions         *
* in geometry.in will be IGNORED - all is received from the wrapper.   *
* Please make sure species are declared in the same order in           *
* geometry.in and wrapper input.                                       *
************************************************************************


  Performing system and environment tests:
  | Environment variable OMP_NUM_THREADS correctly set to 1.
  | Checking for ScaLAPACK...
  | Testing pdtran()...
  | All pdtran() tests passed.

------------------------------------------------------------
          Preparing all fixed parts of the calculation.
------------------------------------------------------------
  Determining machine precision:
     2.2250738585072014E-308
  Setting up grids for atomic and cluster calculations.

  Creating wave function, potential, and density for free atoms.
  Runtime choices for atomic solver:
  | atomic solver xc        : PW-LDA
  | compute density gradient: 0
  | compute kinetic density : F

  Species: Si

  List of occupied orbitals and eigenvalues:
    n    l              occ      energy [Ha]    energy [eV]
    1    0           2.0000       -65.491668     -1782.1190
    2    0           2.0000        -5.087967      -138.4506
    3    0           2.0000        -0.391471       -10.6525
    2    1           6.0000        -3.502246       -95.3010
    3    1           2.0000        -0.143943        -3.9169


  Adding cutoff potential to free-atom effective potential.
  Creating fixed part of basis set: Ionic, confined, hydrogenic.

  Si                   ion:

  List of free ionic orbitals and eigenvalues:
    n    l      energy [Ha]    energy [eV]
    1    0       -66.364436     -1805.8682
    2    0        -5.935799      -161.5213
    3    0        -1.078166       -29.3384
    2    1        -4.351123      -118.4001
    3    1        -0.781733       -21.2720


  List of ionic basis orbitals and eigenvalues:
    n    l      energy [Ha]    energy [eV]    outer radius [A]
    3    0        -1.078146       -29.3378       4.214062


  Si                   hydrogenic:

  List of hydrogenic basis orbitals: 
    n    l      effective z      eigenvalue [eV]  inner max. [A]     outer max. [A]     outer radius [A]   
    3    2         4.200000       -26.6624           1.139231           1.139231           4.534782
    2    1         1.400000        -6.4613           1.472672           1.472672           4.590560
    4    3         6.200000       -32.6778           1.368518           1.368518           4.534782

  Creating atomic-like basis functions for current effective potential.

  Species Si                  :

  List of atomic basis orbitals and eigenvalues:
    n    l      energy [Ha]    energy [eV]    outer radius [A]
    1    0       -65.491668     -1782.1190       0.789468
    2    0        -5.087967      -138.4506       2.815114
    3    0        -0.391471       -10.6525       4.534782
    2    1        -3.502246       -95.3010       3.259919
    3    1        -0.143943        -3.9169       4.590560

  Assembling full basis from fixed parts.
  | Species Si :   atomic orbital   1 s accepted.
  | Species Si :   atomic orbital   2 s accepted.
  | Species Si :    ionic orbital   3 s accepted.
  | Species Si :   atomic orbital   3 s accepted.
  | Species Si :   atomic orbital   2 p accepted.
  | Species Si :   atomic orbital   3 p accepted.
  | Species Si :    hydro orbital   2 p accepted.
  | Species Si :    hydro orbital   3 d accepted.
  | Species Si :    hydro orbital   4 f accepted.

  Basis size parameters after reduction:
  | Total number of radial functions:        9
  | Total number of basis functions :      200

  Per-task memory consumption for arrays in subroutine allocate_ext:
  |           3.106072MB.
  Testing on-site integration grid accuracy.
  |  Species  Function  <phi|h_atom|phi> (log., in eV)  <phi|h_atom|phi> (rad., in eV)
           1        1              -1782.1189727076              -1782.1182429251
           1        2               -138.4506350693               -138.4506310079
           1        3                -10.3030408815                -10.3029120678
           1        4                  5.0238999146                  4.9457540310 ***
           1        5                -95.3009689499                -95.3009689315
           1        6                 -3.9266496564                 -3.9420918374
           1        7                  6.3453628447                  6.1632372158 ***
           1        8                  6.2883050744                  6.2861881409
           1        9                 19.3222464920                 19.3177041052
 * Note: Onsite integrals marked "***" above are less accurate than
 * onsite_accuracy_threshold =    0.03000 eV. Usually, this is harmless.
 * When in doubt, tighten the "radial" and/or "radial_multiplier" flags to check.

  Preparing densities etc. for the partition functions (integrals / Hartree potential).

  Preparations completed.
  max(cpu_time)          :      0.102 s.
  Wall clock time (cpu1) :      0.108 s.
------------------------------------------------------------

  Initializing index lists of integration centers etc. from given atomic structure:
  Mapping all atomic coordinates to central unit cell.

  Initializing the k-points
  Using symmetry for reducing the k-points
  | k-points reduced from:       64 to       36
  | Number of k-points                             :        36
  The eigenvectors in the calculations are COMPLEX.
  | K-points in task   0:         4
  | K-points in task   1:         5
  | K-points in task   2:         5
  | K-points in task   3:         5
  | K-points in task   4:         5
  | K-points in task   5:         4
  | K-points in task   6:         4
  | K-points in task   7:         4
  | Number of basis functions in the Hamiltonian integrals :      3137
  | Number of basis functions in a single unit cell        :       200
  | Number of centers in hartree potential         :      1040
  | Number of centers in hartree multipole         :       502
  | Number of centers in electron density summation:       333
  | Number of centers in basis integrals           :       358
  | Number of centers in integrals                 :       143
  | Number of centers in hamiltonian               :       333
  | Consuming         43 KiB for k_phase.
  | Number of super-cells (origin) [n_cells]                     :         729
  | Number of super-cells (after PM_index) [n_cells]             :          78
  | Number of super-cells in hamiltonian [n_cells_in_hamiltonian]:          78
  | Size of matrix packed + index [n_hamiltonian_matrix_size] :      354405
* Skipping the SCF initialization for now - done inside wrapper      *
  @ DRIVER MODE: Connecting to host:port localhost       10005
  @ DRIVER MODE: Message from server: STATUS      
  @ DRIVER MODE: Message from server: POSDATA     
  @ DRIVER MODE: Received positions 

  Initializing index lists of integration centers etc. from given atomic structure:
  Mapping all atomic coordinates to central unit cell.

  Initializing the k-points
  Using symmetry for reducing the k-points
  | k-points reduced from:       64 to       36
  | Number of k-points                             :        36
  The eigenvectors in the calculations are COMPLEX.
  | K-points in task   0:         4
  | K-points in task   1:         5
  | K-points in task   2:         5
  | K-points in task   3:         5
  | K-points in task   4:         5
  | K-points in task   5:         4
  | K-points in task   6:         4
  | K-points in task   7:         4
  | Number of basis functions in the Hamiltonian integrals :      3137
  | Number of basis functions in a single unit cell        :       200
  | Number of centers in hartree potential         :      1040
  | Number of centers in hartree multipole         :       502
  | Number of centers in electron density summation:       333
  | Number of centers in basis integrals           :       358
  | Number of centers in integrals                 :       143
  | Number of centers in hamiltonian               :       333
  | Consuming         43 KiB for k_phase.
  | Number of super-cells (origin) [n_cells]                     :         729
  | Number of super-cells (after PM_index) [n_cells]             :          78
  | Number of super-cells in hamiltonian [n_cells_in_hamiltonian]:          78
  | Size of matrix packed + index [n_hamiltonian_matrix_size] :      354405

------------------------------------------------------------
          Begin self-consistency loop: Initialization.

          Date     :  20250610, Time     :  145611.178
------------------------------------------------------------
  | Estimated reciprocal-space cutoff momentum G_max:         2.41181531 bohr^-1 .
  | Reciprocal lattice points for long-range Hartree potential:     250
  Partitioning the integration grid into batches with parallel hashing+maxmin method.
  | Number of batches:      622
  | Maximal batch size:     113
  | Minimal batch size:      50
  | Average batch size:      72.077
  | Standard deviation of batch sizes:      18.571

  Integration load balanced across     8 MPI tasks.
  Work distribution over tasks is as follows:
  Task     0 has       5591 integration points.
  Task     1 has       5621 integration points.
  Task     2 has       5637 integration points.
  Task     3 has       5624 integration points.
  Task     4 has       5552 integration points.
  Task     5 has       5585 integration points.
  Task     6 has       5602 integration points.
  Task     7 has       5620 integration points.
  Initializing partition tables, free-atom densities, potentials, etc. across the integration grid (initialize_grid_storage).
  | initialize_grid_storage: Actual outermost partition radius vs. multipole_radius_free
  | (-- VB: in principle, multipole_radius_free should be larger, hence this output)
  | Species        1: Confinement radius =              4.999999999999999 AA, multipole_radius_free =              5.000694715736543 AA.
  | Species        1: outer_partition_radius set to              5.000694715736543 AA .
  | The sparse table of interatomic distances needs        474.96 kbyte instead of      1025.31 kbyte of memory.
  | Net number of integration points:    44832
  | of which are non-zero points    :    38957
  | Numerical average free-atom electrostatic potential    :    -13.30007329 eV
  Renormalizing the initial density to the exact electron count on the 3D integration grid.
  | Initial density: Formal number of electrons (from input files) :     112.0000000000
  | Integrated number of electrons on 3D grid     :     112.0019906253
  | Charge integration error                      :       0.0019906253
  | Normalization factor for density and gradient :       0.9999822269
  Renormalizing the free-atom superposition density to the exact electron count on the 3D integration grid.
  | Formal number of electrons (from input files) :     112.0000000000
  | Integrated number of electrons on 3D grid     :     112.0019906253
  | Charge integration error                      :       0.0019906253
  | Normalization factor for density and gradient :       0.9999822269
  Obtaining max. number of non-zero basis functions in each batch (get_n_compute_maxes).
  | Maximal number of non-zero basis functions:      702 in task     0
  | Maximal number of non-zero basis functions:      684 in task     1
  | Maximal number of non-zero basis functions:      716 in task     2
  | Maximal number of non-zero basis functions:      706 in task     3
  | Maximal number of non-zero basis functions:      728 in task     4
  | Maximal number of non-zero basis functions:      685 in task     5
  | Maximal number of non-zero basis functions:      718 in task     6
  | Maximal number of non-zero basis functions:      710 in task     7
  Allocating        0.977 MB for KS_eigenvector_complex
  Integrating Hamiltonian matrix: batch-based integration.
  Time summed over all CPUs for integration: real work        1.308 s, elapsed        1.427 s
  Integrating overlap matrix.
  Time summed over all CPUs for integration: real work        0.986 s, elapsed        1.211 s
  Decreasing sparse matrix size:
  | Tolerance:  0.1000E-12
  Hamiltonian matrix
  | Array has   325280 nonzero elements out of   354405 elements
  | Sparsity factor is 0.082
  Overlap matrix
  | Array has   313057 nonzero elements out of   354405 elements
  | Sparsity factor is 0.117
  New size of hamiltonian matrix:      325284

  Updating Kohn-Sham eigenvalues and eigenvectors using ELSI and the (modified) LAPACK eigensolver.

  Obtaining occupation numbers and electronic chemical potential using ELSI.
  | Note that, for insulating systems, the printed 'chemical potential' value is not uniquely defined.
  | It can be anywhere in the energy gap, as long as it correctly separates occupied and unoccupied states.
  | In systems with a gap, the physically relevant chemical potential is the VBM or HOMO.

  | Chemical potential (Fermi level):    -5.89232128 eV
  Writing Kohn-Sham eigenvalues.
  K-point:       1 at    0.000000    0.000000    0.000000 (in units of recip. lattice)

  State    Occupation    Eigenvalue [Ha]    Eigenvalue [eV]
      1       2.00000         -65.518031        -1782.83634
      2       2.00000         -65.516722        -1782.80070
      3       2.00000         -65.516383        -1782.79149
      4       2.00000         -65.513973        -1782.72590
      5       2.00000         -65.513471        -1782.71224
      6       2.00000         -65.511594        -1782.66117
      7       2.00000         -65.510736        -1782.63783
      8       2.00000         -65.509887        -1782.61473
      9       2.00000          -5.119841         -139.31795
     10       2.00000          -5.118314         -139.27642
     11       2.00000          -5.117869         -139.26431
     12       2.00000          -5.115088         -139.18861
     13       2.00000          -5.114480         -139.17208
     14       2.00000          -5.112285         -139.11236
     15       2.00000          -5.111274         -139.08485
     16       2.00000          -5.110263         -139.05734
     17       2.00000          -3.534448          -96.17723
     18       2.00000          -3.534032          -96.16589
     19       2.00000          -3.533733          -96.15778
     20       2.00000          -3.533455          -96.15021
     21       2.00000          -3.532553          -96.12566
     22       2.00000          -3.532068          -96.11247
     23       2.00000          -3.531803          -96.10525
     24       2.00000          -3.531766          -96.10424
     25       2.00000          -3.531179          -96.08828
     26       2.00000          -3.529666          -96.04710
     27       2.00000          -3.529502          -96.04264
     28       2.00000          -3.529151          -96.03308
     29       2.00000          -3.528915          -96.02666
     30       2.00000          -3.528195          -96.00707
     31       2.00000          -3.527854          -95.99779
     32       2.00000          -3.526924          -95.97248
     33       2.00000          -3.526234          -95.95370
     34       2.00000          -3.526140          -95.95116
     35       2.00000          -3.525692          -95.93896
     36       2.00000          -3.525261          -95.92723
     37       2.00000          -3.525182          -95.92507
     38       2.00000          -3.524748          -95.91327
     39       2.00000          -3.524465          -95.90558
     40       2.00000          -3.523924          -95.89086
     41       2.00000          -0.672436          -18.29792
     42       2.00000          -0.536014          -14.58569
     43       2.00000          -0.526020          -14.31374
     44       2.00000          -0.519138          -14.12646
     45       2.00000          -0.516540          -14.05576
     46       2.00000          -0.509758          -13.87123
     47       2.00000          -0.507438          -13.80809
     48       2.00000          -0.341643           -9.29658
     49       2.00000          -0.338128           -9.20092
     50       2.00000          -0.332883           -9.05822
     51       2.00000          -0.330926           -9.00495
     52       2.00000          -0.329848           -8.97562
     53       2.00000          -0.326213           -8.87671
     54       2.00000          -0.249224           -6.78172
     55       2.00000          -0.237966           -6.47539
     56       2.00000          -0.219869           -5.98294
     57       0.00000          -0.210984           -5.74118
     58       0.00000          -0.201710           -5.48881
     59       0.00000          -0.198544           -5.40267
     60       0.00000          -0.195392           -5.31689
     61       0.00000          -0.188200           -5.12118
     62       0.00000          -0.185055           -5.03560
     63       0.00000          -0.135951           -3.69942
     64       0.00000          -0.128958           -3.50912
     65       0.00000          -0.119921           -3.26322
     66       0.00000          -0.117382           -3.19413
     67       0.00000           0.052152            1.41914
     68       0.00000           0.060303            1.64094
     69       0.00000           0.065143            1.77263
     70       0.00000           0.135263            3.68069
     71       0.00000           0.137229            3.73419
     72       0.00000           0.142487            3.87727
     73       0.00000           0.144719            3.93802
     74       0.00000           0.147850            4.02320
     75       0.00000           0.163664            4.45352
     76       0.00000           0.168805            4.59343
     77       0.00000           0.172046            4.68161
     78       0.00000           0.181353            4.93485
     79       0.00000           0.183094            4.98224
     80       0.00000           0.192548            5.23950

  What follows are estimated values for band gap, HOMO, LUMO, etc.
  | They are estimated on a discrete k-point grid and not necessarily exact.
  | For converged numbers, create a DOS and/or band structure plot on a denser k-grid.

  Highest occupied state (VBM) at     -5.98294443 eV (relative to internal zero)
  | Occupation number:      2.00000000
  | K-point:       1 at    0.000000    0.000000    0.000000 (in units of recip. lattice)

  Lowest unoccupied state (CBM) at    -5.74117784 eV (relative to internal zero)
  | Occupation number:      0.00000000
  | K-point:       1 at    0.000000    0.000000    0.000000 (in units of recip. lattice)

  ESTIMATED overall HOMO-LUMO gap:      0.24176659 eV between HOMO at k-point 1 and LUMO at k-point 1
  | This appears to be a direct band gap.
  The gap value is above 0.2 eV. Unless you are using a very sparse k-point grid,
  this system is most likely an insulator or a semiconductor.
  Calculating total energy contributions from superposition of free atom densities.

  Total energy components:
  | Sum of eigenvalues            :       -1312.77345129 Ha      -35722.38314456 eV
  | XC energy correction          :        -158.68707200 Ha       -4318.09493133 eV
  | XC potential correction       :         209.65126859 Ha        5704.90128052 eV
  | Free-atom electrostatic energy:       -1053.15367251 Ha      -28657.76952032 eV
  | Hartree energy correction     :          -0.00000000 Ha          -0.00000000 eV
  | Entropy correction            :          -0.00000000 Ha          -0.00000000 eV
  | ---------------------------
  | Total energy                  :       -2314.96292721 Ha      -62993.34631568 eV
  | Total energy, T -> 0          :       -2314.96292721 Ha      -62993.34631568 eV  <-- do not rely on this value for anything but (periodic) metals
  | Electronic free energy        :       -2314.96292721 Ha      -62993.34631568 eV

  Derived energy quantities:
  | Kinetic energy                :        2318.89676702 Ha       63100.39154318 eV
  | Electrostatic energy          :       -4475.17262224 Ha     -121775.64292753 eV
  | Energy correction for multipole
  | error in Hartree potential    :           0.00000000 Ha           0.00000000 eV
  | Sum of eigenvalues per atom                           :       -4465.29789307 eV
  | Total energy (T->0) per atom                          :       -7874.16828946 eV  <-- do not rely on this value for anything but (periodic) metals
  | Electronic free energy per atom                       :       -7874.16828946 eV
  Initialize hartree_potential_storage
  Max. number of atoms included in rho_multipole:            8

  End scf initialization - timings             :  max(cpu_time)    wall_clock(cpu1)
  | Time for scf. initialization                :        0.592 s           0.604 s
  | Boundary condition initialization           :        0.026 s           0.028 s
  | Integration                                 :        0.326 s           0.335 s
  | Solution of K.-S. eqns.                     :        0.121 s           0.121 s
  | Grid partitioning                           :        0.036 s           0.036 s
  | Preloading free-atom quantities on grid     :        0.078 s           0.079 s
  | Free-atom superposition energy              :        0.029 s           0.029 s
  | Total energy evaluation                     :        0.000 s           0.000 s

  Partial memory accounting:
  | Current value for overall tracked memory usage:
  |   Minimum:        7.226 MB (on task 0)
  |   Maximum:        7.470 MB (on task 1)
  |   Average:        7.348 MB
  | Peak value for overall tracked memory usage:
  |   Minimum:       13.133 MB (on task 5 after allocating wave)
  |   Maximum:       13.952 MB (on task 4 after allocating wave)
  |   Average:       13.535 MB
  | Largest tracked array allocation so far:
  |   Minimum:        3.569 MB (hamiltonian_shell on task 1)
  |   Maximum:        4.043 MB (hamiltonian_shell on task 4)
  |   Average:        3.806 MB
  Note:  These values currently only include a subset of arrays which are explicitly tracked.
  The "true" memory usage will be greater.
------------------------------------------------------------
  Time for density update prior                :  max(cpu_time)    wall_clock(cpu1)
  | self-consistency iterative process          :        0.191 s           0.196 s
------------------------------------------------------------
Convergence:    q app. |  density  | eigen (eV) | Etot (eV) | forces (eV/A) |       CPU time |     Clock time
  SCF    1 :  0.10E-12 |  0.23E+00 |   0.47E+01 |  0.10E+00 |             . |        0.536 s |        0.553 s
  SCF    2 : -0.88E-13 |  0.21E+00 |   0.73E+02 |  0.65E+00 |             . |        0.520 s |        0.535 s
  SCF    3 :  0.26E-13 |  0.35E-01 |  -0.24E+02 |  0.43E-01 |             . |        0.534 s |        0.551 s
  SCF    4 :  0.13E-12 |  0.22E-01 |   0.18E+01 | -0.24E-03 |             . |        0.495 s |        0.513 s
  SCF    5 :  0.39E-13 |  0.12E-01 |  -0.56E+01 |  0.10E-01 |             . |        0.547 s |        0.576 s
  SCF    6 :  0.28E-14 |  0.37E-02 |  -0.71E+00 |  0.53E-03 |             . |        0.506 s |        0.520 s
  SCF    7 :  0.11E-12 |  0.34E-02 |  -0.18E+00 |  0.99E-03 |             . |        0.510 s |        0.520 s
  SCF    8 :  0.35E-13 |  0.93E-03 |   0.18E+00 |  0.75E-04 |             . |        0.529 s |        0.550 s
  SCF    9 :  0.90E-13 |  0.59E-03 |  -0.75E-01 |  0.36E-04 |             . |        0.511 s |        0.516 s
  SCF   10 : -0.91E-14 |  0.16E-03 |   0.28E-01 |  0.76E-05 |             . |        0.541 s |        0.552 s
  SCF   11 :  0.80E-13 |  0.32E-04 |  -0.20E-02 |  0.12E-05 |             . |        0.525 s |        0.529 s
  SCF   12 : -0.15E-12 |  0.30E-04 |   0.69E-02 |  0.43E-05 |             . |        0.516 s |        0.524 s
  SCF   13 :  0.48E-13 |  0.99E-05 |   0.19E-02 |  0.16E-05 |             . |        0.512 s |        0.520 s
  SCF   14 :  0.82E-13 |  0.41E-05 |   0.61E-03 |  0.13E-05 |             . |        0.538 s |        0.545 s
  SCF   15 : -0.44E-13 |  0.15E-05 |  -0.17E-03 |  0.14E-06 |             . |        0.505 s |        0.509 s
  SCF   16 : -0.93E-13 |  0.14E-05 |  -0.11E-03 |  0.16E-06 |             . |        0.511 s |        0.522 s
  SCF   17 :  0.13E-14 |  0.13E-05 |   0.14E-03 |  0.39E-07 |             . |        0.503 s |        0.503 s
  SCF   18 :  0.63E-13 |  0.12E-05 |   0.36E-03 | -0.12E-06 |             . |        0.532 s |        0.547 s
  SCF   19 : -0.35E-13 |  0.91E-06 |  -0.28E-04 | -0.14E-07 |             . |        0.557 s |        0.565 s
  SCF   20 : -0.23E-13 |  0.85E-06 |  -0.15E-03 |  0.34E-07 |      0.15E+01 |        2.691 s |        2.635 s

  Total energy components:
  | Sum of eigenvalues            :       -1310.98160290 Ha      -35673.62446898 eV
  | XC energy correction          :        -158.82168967 Ha       -4321.75806461 eV
  | XC potential correction       :         209.82807177 Ha        5709.71233979 eV
  | Free-atom electrostatic energy:       -1053.15367251 Ha      -28657.76952032 eV
  | Hartree energy correction     :          -1.80427827 Ha         -49.09690977 eV
  | Entropy correction            :          -0.00000527 Ha          -0.00014334 eV
  | ---------------------------
  | Total energy                  :       -2314.93317159 Ha      -62992.53662389 eV
  | Total energy, T -> 0          :       -2314.93317686 Ha      -62992.53676724 eV  <-- do not rely on this value for anything but (periodic) metals
  | Electronic free energy        :       -2314.93318212 Ha      -62992.53691058 eV

  Derived energy quantities:
  | Kinetic energy                :        2318.26338974 Ha       63083.15647036 eV
  | Electrostatic energy          :       -4474.37487165 Ha     -121753.93502965 eV
  | Energy correction for multipole
  | error in Hartree potential    :           0.05293209 Ha           1.44035548 eV
  | Sum of eigenvalues per atom                           :       -4459.20305862 eV
  | Total energy (T->0) per atom                          :       -7874.06709590 eV  <-- do not rely on this value for anything but (periodic) metals
  | Electronic free energy per atom                       :       -7874.06711382 eV
  What follows are estimated values for band gap, HOMO, LUMO, etc.
  | They are estimated on a discrete k-point grid and not necessarily exact.
  | For converged numbers, create a DOS and/or band structure plot on a denser k-grid.

  Highest occupied state (VBM) at     -5.65066484 eV (relative to internal zero)
  | Occupation number:      1.86608857
  | K-point:       1 at    0.000000    0.000000    0.000000 (in units of recip. lattice)

  Lowest unoccupied state (CBM) at    -5.54467983 eV (relative to internal zero)
  | Occupation number:      0.13391142
  | K-point:       1 at    0.000000    0.000000    0.000000 (in units of recip. lattice)

  ESTIMATED overall HOMO-LUMO gap:      0.10598501 eV between HOMO at k-point 1 and LUMO at k-point 1
  | This appears to be a direct band gap.
  However, this system has fractional occupation numbers. Since we use a finite k-point grid,
  this material is metallic within the approximate finite broadening function (occupation_type)
  applied to determine the occupation numbers.

  | Chemical Potential                          :    -5.59767234 eV
  | Note that, for insulating systems, the printed 'chemical potential' value is not uniquely defined.
  | It can be anywhere in the energy gap, as long as it correctly separates occupied and unoccupied states.
  | In systems with a gap, the physically relevant chemical potential is the VBM or HOMO.

  Self-consistency cycle converged.

  Removing unitary transformations (pure translations, rotations) from forces on atoms.
  Atomic forces before filtering:
  | Net force on center of mass :  -0.679427E-03 -0.344769E-02 -0.944019E-02 eV/A
  Atomic forces after filtering:
  | Net force on center of mass :   0.178406E-15 -0.446015E-16 -0.892031E-15 eV/A

  Energy and forces in a compact form:
  | Total energy uncorrected      :         -0.629925366238934E+05 eV
  | Total energy corrected        :         -0.629925367672375E+05 eV  <-- do not rely on this value for anything but (periodic) metals
  | Electronic free energy        :         -0.629925369105816E+05 eV
  Total atomic forces (unitary forces cleaned) [eV/Ang]:
  |    1         -0.459526651390455E+00         -0.418044479990052E+00          0.268284238510906E-01
  |    2          0.870824944304912E+00          0.707126259629490E+00         -0.207580124797926E+01
  |    3          0.948859292005793E+00          0.740228029293294E+00         -0.211810830130397E+01
  |    4          0.518547184242910E+00         -0.351540747978263E+00          0.742794878024028E+00
  |    5         -0.303173073517551E+00         -0.462625887944350E+00          0.188118030405426E+00
  |    6         -0.590940184804832E+00          0.466837757720369E+00          0.813824377921583E+00
  |    7         -0.692703759782095E+00         -0.767459089189717E+00          0.157996789478356E+01
  |    8         -0.291887751058682E+00          0.854781584592286E-01          0.842375944297542E+00

  Removing unitary transformations (pure translations, rotations) from forces on atoms.
  Atomic forces before filtering:
  | Net force on center of mass :   0.178406E-15 -0.446015E-16 -0.892031E-15 eV/A
  Atomic forces after filtering:
  | Net force on center of mass :   0.178406E-15 -0.111504E-16 -0.892031E-15 eV/A
  @ DRIVER - WARNING: the stress tensor will not be computed
 ------------------------------------------------------------------------
 Atomic structure that was used in the preceding time step of the wrapper
                         x [A]             y [A]             z [A]
  lattice_vector         5.40883258        0.00000000        0.00000000
  lattice_vector         0.00000000        5.40883257        0.00000000
  lattice_vector         0.00000000        0.00000000        5.40883257

            atom         0.16145212        0.15419252        0.02768421  Si
            atom        -0.16378841        2.71606618        2.75438321  Si
            atom         2.60328272       -0.15781940        2.85790872  Si
            atom         2.74369167        2.69154601       -0.11726518  Si
            atom         1.47290432        1.48585098        1.47555463  Si
            atom         1.25625319        3.93416259        4.07959514  Si
            atom         4.08199979        1.26602235        3.94061775  Si
            atom         4.07070234        4.13647648        1.20801921  Si
 ------------------------------------------------------------------------
  @ DRIVER MODE: Message from server: STATUS      
  @ DRIVER MODE: Message from server: GETFORCE    
  @ DRIVER MODE: Returning v,forces,stress 

------------------------------------------------------------------------------
  Final output of selected total energy values:

  The following output summarizes some interesting total energy values
  at the end of a run (AFTER all relaxation, molecular dynamics, etc.).

  | Total energy of the DFT / Hartree-Fock s.c.f. calculation      :         -62992.536623893 eV
  | Final zero-broadening corrected energy (caution - metals only) :         -62992.536767237 eV
  | For reference only, the value of 1 Hartree used in FHI-aims is :             27.211384500 eV
  | For reference only, the overall average (free atom contribution
  | + realspace contribution) of the electrostatic potential after
  | s.c.f. convergence is                                          :            -13.038444763 eV

  Before relying on these values, please be sure to understand exactly which
  total energy value is referred to by a given number. Different objects may
  all carry the same name 'total energy'. Definitions:

  Total energy of the DFT / Hartree-Fock s.c.f. calculation:
  | Note that this energy does not include ANY quantities calculated after the
  | s.c.f. cycle, in particular not ANY RPA, MP2, etc. many-body perturbation terms.

  Final zero-broadening corrected energy:
  | For metallic systems only, a broadening of the occupation numbers at the Fermi
  | level can be extrapolated back to zero broadening by an electron-gas inspired
  | formula. For all systems that are not real metals, this value can be
  | meaningless and should be avoided.

------------------------------------------------------------------------------
  Methods described in the following list of references were used in this FHI-aims run.
  If you publish the results, please make sure to cite these reference if they apply.
  FHI-aims is an academic code, and for our developers (often, Ph.D. students
  and postdocs), scientific credit in the community is essential.
  Thank you for helping us!

  For any use of FHI-aims, please cite:

    Volker Blum, Ralf Gehrke, Felix Hanke, Paula Havu, Ville Havu,
    Xinguo Ren, Karsten Reuter, and Matthias Scheffler
    'Ab initio molecular simulations with numeric atom-centered orbitals'
    Computer Physics Communications 180, 2175-2196 (2009)
    http://doi.org/10.1016/j.cpc.2009.06.022


  The provided symmetry information was generated with SPGlib:

    Atsushi Togo, Yusuke Seto, Dimitar Pashov
    SPGlib 1.7.3 obtained from http://spglib.sourceforge.net
    Licence: New BSD license
    Copyright (C) 2008 Atsushi Togo


  The ELSI infrastructure was used in your run to solve the Kohn-Sham electronic structure.
  Please check out http://elsi-interchange.org to learn more.
  If scalability is important for your project, please acknowledge ELSI by citing:

    V. W-z. Yu, F. Corsetti, A. Garcia, W. P. Huhn, M. Jacquelin, W. Jia,
    B. Lange, L. Lin, J. Lu, W. Mi, A. Seifitokaldani, A. Vazquez-Mayagoitia,
    C. Yang, H. Yang, and V. Blum
    'ELSI: A unified software interface for Kohn-Sham electronic structure solvers'
    Computer Physics Communications 222, 267-285 (2018).
    http://doi.org/10.1016/j.cpc.2017.09.007


  For the real-space grid partitioning and parallelization used in this calculation, please cite:

    Ville Havu, Volker Blum, Paula Havu, and Matthias Scheffler,
    'Efficient O(N) integration for all-electron electronic structure calculation'
    'using numerically tabulated basis functions'
    Journal of Computational Physics 228, 8367-8379 (2009).
    http://doi.org/10.1016/j.jcp.2009.08.008

  Of course, there are many other important community references, e.g., those cited in the
  above references. Our list is limited to references that describe implementations in the
  FHI-aims code. The reason is purely practical (length of this list) - please credit others as well.

------------------------------------------------------------
          Leaving FHI-aims.
          Date     :  20250610, Time     :  145624.882

          Computational steps:
          | Number of self-consistency cycles          :           20
          | Number of SCF (re)initializations          :            1

          Detailed time accounting                     :  max(cpu_time)    wall_clock(cpu1)
          | Total time                                  :       13.498 s          13.920 s
          | Preparation time                            :        0.102 s           0.108 s
          | Boundary condition initalization            :        0.026 s           0.028 s
          | Grid partitioning                           :        0.036 s           0.036 s
          | Preloading free-atom quantities on grid     :        0.078 s           0.079 s
          | Free-atom superposition energy              :        0.029 s           0.029 s
          | Total time for integrations                 :        3.998 s           4.077 s
          | Total time for solution of K.-S. equations  :        1.588 s           1.601 s
          | Total time for density & force components   :        5.438 s           5.401 s
          | Total time for mixing                       :        0.007 s           0.006 s
          | Total time for Hartree multipole update     :        0.027 s           0.027 s
          | Total time for Hartree multipole sum        :        1.809 s           1.811 s
          | Total time for total energy evaluation      :        0.001 s           0.002 s
          | Total time NSC force correction             :        0.496 s           0.503 s
          | Total time for scaled ZORA corrections      :        0.000 s           0.000 s

          Partial memory accounting:
          | Residual value for overall tracked memory usage across tasks:     0.000000 MB (should be 0.000000 MB)
          | Peak values for overall tracked memory usage:
          |   Minimum:       19.886 MB (on task 5 after allocating d_wave)
          |   Maximum:       21.108 MB (on task 4 after allocating d_wave)
          |   Average:       20.491 MB
          | Largest tracked array allocation:
          |   Minimum:        3.569 MB (hamiltonian_shell on task 1)
          |   Maximum:        4.043 MB (hamiltonian_shell on task 4)
          |   Average:        3.806 MB
          Note:  These values currently only include a subset of arrays which are explicitly tracked.
          The "true" memory usage will be greater.

          Have a nice day.
------------------------------------------------------------
