nqpoint: 200    
npath: 4      
segment_nqpoint:
- 50
- 50
- 50
- 50
labels:
- [ 'G', 'X' ]
- [ 'X', 'U|K' ]
- [ 'U|K', 'G' ]
- [ 'G', 'L' ]
reciprocal_lattice:
- [  -0.18488278,   0.18488278,   0.18488278 ] # a*
- [   0.18488278,  -0.18488278,   0.18488278 ] # b*
- [   0.18488278,   0.18488278,  -0.18488278 ] # c*
natom: 2      
lattice:
- [     0.000000000100000,     2.704416287198000,     2.704416287167000 ] # a
- [     2.704416294294000,     0.000000000083000,     2.704416287184000 ] # b
- [     2.704416294256999,     2.704416287178999,     0.000000000120000 ] # c
points:
- symbol: Si # 1
  coordinates: [  0.000000000008000,  0.000000000005000,  0.000000000019000 ]
  mass: 28.085000
- symbol: Si # 2
  coordinates: [  0.249999999992000,  0.249999999994999,  0.249999999981000 ]
  mass: 28.085000

phonon:
- q-position: [    0.0000000,    0.0000000,    0.0000000 ]
  distance:    0.0000000
  band:
  - # 1
    frequency:   -0.0000004934
  - # 2
    frequency:   -0.0000004291
  - # 3
    frequency:   -0.0000004047
  - # 4
    frequency:   15.4151614264
  - # 5
    frequency:   15.4151614466
  - # 6
    frequency:   15.4151614667

- q-position: [    0.0102041,    0.0000000,    0.0102041 ]
  distance:    0.0037731
  band:
  - # 1
    frequency:    0.1106670499
  - # 2
    frequency:    0.1106671166
  - # 3
    frequency:    0.3037184785
  - # 4
    frequency:   15.4137735926
  - # 5
    frequency:   15.4137736128
  - # 6
    frequency:   15.4141934253

- q-position: [    0.0204082,    0.0000000,    0.0204082 ]
  distance:    0.0075462
  band:
  - # 1
    frequency:    0.2213066905
  - # 2
    frequency:    0.2213067572
  - # 3
    frequency:    0.6072797709
  - # 4
    frequency:   15.4096138071
  - # 5
    frequency:   15.4096138273
  - # 6
    frequency:   15.4112868117

- q-position: [    0.0306122,    0.0000000,    0.0306122 ]
  distance:    0.0113194
  band:
  - # 1
    frequency:    0.3318909630
  - # 2
    frequency:    0.3318910297
  - # 3
    frequency:    0.9105268802
  - # 4
    frequency:   15.4026932213
  - # 5
    frequency:   15.4026932414
  - # 6
    frequency:   15.4064341682

- q-position: [    0.0408163,    0.0000000,    0.0408163 ]
  distance:    0.0150925
  band:
  - # 1
    frequency:    0.4423909772
  - # 2
    frequency:    0.4423910439
  - # 3
    frequency:    1.2133031872
  - # 4
    frequency:   15.3930304321
  - # 5
    frequency:   15.3930304521
  - # 6
    frequency:   15.3996230998

- q-position: [    0.0510204,    0.0000000,    0.0510204 ]
  distance:    0.0188656
  band:
  - # 1
    frequency:    0.5527763991
  - # 2
    frequency:    0.5527764658
  - # 3
    frequency:    1.5154526388
  - # 4
    frequency:   15.3806514990
  - # 5
    frequency:   15.3806515190
  - # 6
    frequency:   15.3908363253

- q-position: [    0.0612245,    0.0000000,    0.0612245 ]
  distance:    0.0226387
  band:
  - # 1
    frequency:    0.6630149743
  - # 2
    frequency:    0.6630150409
  - # 3
    frequency:    1.8168199357
  - # 4
    frequency:   15.3655899683
  - # 5
    frequency:   15.3655899882
  - # 6
    frequency:   15.3800517482

- q-position: [    0.0714286,    0.0000000,    0.0714286 ]
  distance:    0.0264118
  band:
  - # 1
    frequency:    0.7730720568
  - # 2
    frequency:    0.7730721233
  - # 3
    frequency:    2.1172507189
  - # 4
    frequency:   15.3478869025
  - # 5
    frequency:   15.3478869223
  - # 6
    frequency:   15.3672425487

- q-position: [    0.0816327,    0.0000000,    0.0816327 ]
  distance:    0.0301849
  band:
  - # 1
    frequency:    0.8829101433
  - # 2
    frequency:    0.8829102097
  - # 3
    frequency:    2.4165917555
  - # 4
    frequency:   15.3275909165
  - # 5
    frequency:   15.3275909362
  - # 6
    frequency:   15.3523772927

- q-position: [    0.0918367,    0.0000000,    0.0918367 ]
  distance:    0.0339581
  band:
  - # 1
    frequency:    0.9924884144
  - # 2
    frequency:    0.9924884808
  - # 3
    frequency:    2.7146911225
  - # 4
    frequency:   15.3047582193
  - # 5
    frequency:   15.3047582389
  - # 6
    frequency:   15.3354200613

- q-position: [    0.1020408,    0.0000000,    0.1020408 ]
  distance:    0.0377312
  band:
  - # 1
    frequency:    1.1017622845
  - # 2
    frequency:    1.1017623508
  - # 3
    frequency:    3.0113983896
  - # 4
    frequency:   15.2794526601
  - # 5
    frequency:   15.2794526795
  - # 6
    frequency:   15.3163305970

- q-position: [    0.1122449,    0.0000000,    0.1122449 ]
  distance:    0.0415043
  band:
  - # 1
    frequency:    1.2106829609
  - # 2
    frequency:    1.2106830271
  - # 3
    frequency:    3.3065647995
  - # 4
    frequency:   15.2517457785
  - # 5
    frequency:   15.2517457978
  - # 6
    frequency:   15.2950644671

- q-position: [    0.1224490,    0.0000000,    0.1224490 ]
  distance:    0.0452774
  band:
  - # 1
    frequency:    1.3191970148
  - # 2
    frequency:    1.3191970808
  - # 3
    frequency:    3.6000434465
  - # 4
    frequency:   15.2217168589
  - # 5
    frequency:   15.2217168780
  - # 6
    frequency:   15.2715732432

- q-position: [    0.1326531,    0.0000000,    0.1326531 ]
  distance:    0.0490505
  band:
  - # 1
    frequency:    1.4272459649
  - # 2
    frequency:    1.4272460308
  - # 3
    frequency:    3.8916894527
  - # 4
    frequency:   15.1894529850
  - # 5
    frequency:   15.1894530039
  - # 6
    frequency:   15.2458046961

- q-position: [    0.1428571,    0.0000000,    0.1428571 ]
  distance:    0.0528237
  band:
  - # 1
    frequency:    1.5347658761
  - # 2
    frequency:    1.5347659420
  - # 3
    frequency:    4.1813601415
  - # 4
    frequency:   15.1550490959
  - # 5
    frequency:   15.1550491146
  - # 6
    frequency:   15.2177030048

- q-position: [    0.1530612,    0.0000000,    0.1530612 ]
  distance:    0.0565968
  band:
  - # 1
    frequency:    1.6416869753
  - # 2
    frequency:    1.6416870410
  - # 3
    frequency:    4.4689152083
  - # 4
    frequency:   15.1186080405
  - # 5
    frequency:   15.1186080589
  - # 6
    frequency:   15.1872089778

- q-position: [    0.1632653,    0.0000000,    0.1632653 ]
  distance:    0.0603699
  band:
  - # 1
    frequency:    1.7479332862
  - # 2
    frequency:    1.7479333518
  - # 3
    frequency:    4.7542168886
  - # 4
    frequency:   15.0802406273
  - # 5
    frequency:   15.0802406456
  - # 6
    frequency:   15.1542602870

- q-position: [    0.1734694,    0.0000000,    0.1734694 ]
  distance:    0.0641430
  band:
  - # 1
    frequency:    1.8534222871
  - # 2
    frequency:    1.8534223526
  - # 3
    frequency:    5.0371301221
  - # 4
    frequency:   15.0400656692
  - # 5
    frequency:   15.0400656872
  - # 6
    frequency:   15.1187917124

- q-position: [    0.1836735,    0.0000000,    0.1836735 ]
  distance:    0.0679161
  band:
  - # 1
    frequency:    1.9580645942
  - # 2
    frequency:    1.9580646596
  - # 3
    frequency:    5.3175227135
  - # 4
    frequency:   14.9982100168
  - # 5
    frequency:   14.9982100345
  - # 6
    frequency:   15.0807353959

- q-position: [    0.1938776,    0.0000000,    0.1938776 ]
  distance:    0.0716892
  band:
  - # 1
    frequency:    2.0617636740
  - # 2
    frequency:    2.0617637392
  - # 3
    frequency:    5.5952654905
  - # 4
    frequency:   14.9548085789
  - # 5
    frequency:   14.9548085963
  - # 6
    frequency:   15.0400211032

- q-position: [    0.2040816,    0.0000000,    0.2040816 ]
  distance:    0.0754624
  band:
  - # 1
    frequency:    2.1644155896
  - # 2
    frequency:    2.1644156547
  - # 3
    frequency:    5.8702324561
  - # 4
    frequency:   14.9100043250
  - # 5
    frequency:   14.9100043421
  - # 6
    frequency:   14.9965764938

- q-position: [    0.2142857,    0.0000000,    0.2142857 ]
  distance:    0.0792355
  band:
  - # 1
    frequency:    2.2659087868
  - # 2
    frequency:    2.2659088518
  - # 3
    frequency:    6.1423009383
  - # 4
    frequency:   14.8639482636
  - # 5
    frequency:   14.8639482804
  - # 6
    frequency:   14.9503273960

- q-position: [    0.2244898,    0.0000000,    0.2244898 ]
  distance:    0.0830086
  band:
  - # 1
    frequency:    2.3661239240
  - # 2
    frequency:    2.3661239889
  - # 3
    frequency:    6.4113517345
  - # 4
    frequency:   14.8167993910
  - # 5
    frequency:   14.8167994075
  - # 6
    frequency:   14.9011980868

- q-position: [    0.2346939,    0.0000000,    0.2346939 ]
  distance:    0.0867817
  band:
  - # 1
    frequency:    2.4649337544
  - # 2
    frequency:    2.4649338191
  - # 3
    frequency:    6.6772692514
  - # 4
    frequency:   14.7687246034
  - # 5
    frequency:   14.7687246195
  - # 6
    frequency:   14.8491115753

- q-position: [    0.2448980,    0.0000000,    0.2448980 ]
  distance:    0.0905548
  band:
  - # 1
    frequency:    2.5622030669
  - # 2
    frequency:    2.5622031314
  - # 3
    frequency:    6.9399416401
  - # 4
    frequency:   14.7198985639
  - # 5
    frequency:   14.7198985795
  - # 6
    frequency:   14.7939898892

- q-position: [    0.2551020,    0.0000000,    0.2551020 ]
  distance:    0.0943279
  band:
  - # 1
    frequency:    2.6577886953
  - # 2
    frequency:    2.6577887598
  - # 3
    frequency:    7.1992609263
  - # 4
    frequency:   14.6705035156
  - # 5
    frequency:   14.6705035308
  - # 6
    frequency:   14.7357543612

- q-position: [    0.2653061,    0.0000000,    0.2653061 ]
  distance:    0.0981011
  band:
  - # 1
    frequency:    2.7515396045
  - # 2
    frequency:    2.7515396689
  - # 3
    frequency:    7.4551231345
  - # 4
    frequency:   14.6207290316
  - # 5
    frequency:   14.6207290464
  - # 6
    frequency:   14.6743259166

- q-position: [    0.2755102,    0.0000000,    0.2755102 ]
  distance:    0.1018742
  band:
  - # 1
    frequency:    2.8432970637
  - # 2
    frequency:    2.8432971279
  - # 3
    frequency:    7.7074284069
  - # 4
    frequency:   14.5707716895
  - # 5
    frequency:   14.5707717039
  - # 6
    frequency:   14.6096253600

- q-position: [    0.2857143,    0.0000000,    0.2857143 ]
  distance:    0.1056473
  band:
  - # 1
    frequency:    2.9328949185
  - # 2
    frequency:    2.9328949826
  - # 3
    frequency:    7.9560811170
  - # 4
    frequency:   14.5208346600
  - # 5
    frequency:   14.5208346740
  - # 6
    frequency:   14.5415736591

- q-position: [    0.2959184,    0.0000000,    0.2959184 ]
  distance:    0.1094204
  band:
  - # 1
    frequency:    3.0201599737
  - # 2
    frequency:    3.0201600377
  - # 3
    frequency:    8.2009899766
  - # 4
    frequency:   14.4700922274
  - # 5
    frequency:   14.4711271973
  - # 6
    frequency:   14.4711272108

- q-position: [    0.3061224,    0.0000000,    0.3061224 ]
  distance:    0.1131935
  band:
  - # 1
    frequency:    3.1049124969
  - # 2
    frequency:    3.1049125608
  - # 3
    frequency:    8.4420681363
  - # 4
    frequency:   14.3951032014
  - # 5
    frequency:   14.4218640181
  - # 6
    frequency:   14.4218640310

- q-position: [    0.3163265,    0.0000000,    0.3163265 ]
  distance:    0.1169667
  band:
  - # 1
    frequency:    3.1869668565
  - # 2
    frequency:    3.1869669203
  - # 3
    frequency:    8.6792332801
  - # 4
    frequency:   14.3165297146
  - # 5
    frequency:   14.3732645577
  - # 6
    frequency:   14.3732645701

- q-position: [    0.3265306,    0.0000000,    0.3265306 ]
  distance:    0.1207398
  band:
  - # 1
    frequency:    3.2661323050
  - # 2
    frequency:    3.2661323687
  - # 3
    frequency:    8.9124077132
  - # 4
    frequency:   14.2342961657
  - # 5
    frequency:   14.3255520910
  - # 6
    frequency:   14.3255521030

- q-position: [    0.3367347,    0.0000000,    0.3367347 ]
  distance:    0.1245129
  band:
  - # 1
    frequency:    3.3422139155
  - # 2
    frequency:    3.3422139791
  - # 3
    frequency:    9.1415184420
  - # 4
    frequency:   14.1483284805
  - # 5
    frequency:   14.2789527086
  - # 6
    frequency:   14.2789527199

- q-position: [    0.3469388,    0.0000000,    0.3469388 ]
  distance:    0.1282860
  band:
  - # 1
    frequency:    3.4150136816
  - # 2
    frequency:    3.4150137451
  - # 3
    frequency:    9.3664972483
  - # 4
    frequency:   14.0585543678
  - # 5
    frequency:   14.2336941381
  - # 6
    frequency:   14.2336941489

- q-position: [    0.3571429,    0.0000000,    0.3571429 ]
  distance:    0.1320591
  band:
  - # 1
    frequency:    3.4843317838
  - # 2
    frequency:    3.4843318472
  - # 3
    frequency:    9.5872807547
  - # 4
    frequency:   13.9649035673
  - # 5
    frequency:   14.1900044081
  - # 6
    frequency:   14.1900044183

- q-position: [    0.3673469,    0.0000000,    0.3673469 ]
  distance:    0.1358322
  band:
  - # 1
    frequency:    3.5499680235
  - # 2
    frequency:    3.5499680869
  - # 3
    frequency:    9.8038104835
  - # 4
    frequency:   13.8673080900
  - # 5
    frequency:   14.1481103504
  - # 6
    frequency:   14.1481103600

- q-position: [    0.3775510,    0.0000000,    0.3775510 ]
  distance:    0.1396054
  band:
  - # 1
    frequency:    3.6117234213
  - # 2
    frequency:    3.6117234846
  - # 3
    frequency:   10.0160329069
  - # 4
    frequency:   13.7657024506
  - # 5
    frequency:   14.1082359466
  - # 6
    frequency:   14.1082359555

- q-position: [    0.3877551,    0.0000000,    0.3877551 ]
  distance:    0.1433785
  band:
  - # 1
    frequency:    3.6694019672
  - # 2
    frequency:    3.6694020304
  - # 3
    frequency:   10.2238994897
  - # 4
    frequency:   13.6600238905
  - # 5
    frequency:   14.0706005267
  - # 6
    frequency:   14.0706005350

- q-position: [    0.3979592,    0.0000000,    0.3979592 ]
  distance:    0.1471516
  band:
  - # 1
    frequency:    3.7228125091
  - # 2
    frequency:    3.7228125724
  - # 3
    frequency:   10.4273667233
  - # 4
    frequency:   13.5502125920
  - # 5
    frequency:   14.0354168379
  - # 6
    frequency:   14.0354168455

- q-position: [    0.4081633,    0.0000000,    0.4081633 ]
  distance:    0.1509247
  band:
  - # 1
    frequency:    3.7717707525
  - # 2
    frequency:    3.7717708157
  - # 3
    frequency:   10.6263961516
  - # 4
    frequency:   13.4362118832
  - # 5
    frequency:   14.0028890059
  - # 6
    frequency:   14.0028890128

- q-position: [    0.4183673,    0.0000000,    0.4183673 ]
  distance:    0.1546978
  band:
  - # 1
    frequency:    3.8161013401
  - # 2
    frequency:    3.8161014032
  - # 3
    frequency:   10.8209543878
  - # 4
    frequency:   13.3179684328
  - # 5
    frequency:   13.9732104211
  - # 6
    frequency:   13.9732104274

- q-position: [    0.4285714,    0.0000000,    0.4285714 ]
  distance:    0.1584710
  band:
  - # 1
    frequency:    3.8556399720
  - # 2
    frequency:    3.8556400352
  - # 3
    frequency:   11.0110131227
  - # 4
    frequency:   13.1954324349
  - # 5
    frequency:   13.9465615898
  - # 6
    frequency:   13.9465615954

- q-position: [    0.4387755,    0.0000000,    0.4387755 ]
  distance:    0.1622441
  band:
  - # 1
    frequency:    3.8902355198
  - # 2
    frequency:    3.8902355828
  - # 3
    frequency:   11.1965491236
  - # 4
    frequency:   13.0685577840
  - # 5
    frequency:   13.9231079947
  - # 6
    frequency:   13.9231079996

- q-position: [    0.4489796,    0.0000000,    0.4489796 ]
  distance:    0.1660172
  band:
  - # 1
    frequency:    3.9197520807
  - # 2
    frequency:    3.9197521438
  - # 3
    frequency:   11.3775442239
  - # 4
    frequency:   12.9373022393
  - # 5
    frequency:   13.9029980192
  - # 6
    frequency:   13.9029980233

- q-position: [    0.4591837,    0.0000000,    0.4591837 ]
  distance:    0.1697903
  band:
  - # 1
    frequency:    3.9440709179
  - # 2
    frequency:    3.9440709810
  - # 3
    frequency:   11.5539853034
  - # 4
    frequency:   12.8016275784
  - # 5
    frequency:   13.8863609893
  - # 6
    frequency:   13.8863609928

- q-position: [    0.4693878,    0.0000000,    0.4693878 ]
  distance:    0.1735634
  band:
  - # 1
    frequency:    3.9630922272
  - # 2
    frequency:    3.9630922902
  - # 3
    frequency:   11.7258642589
  - # 4
    frequency:   12.6614997410
  - # 5
    frequency:   13.8733053928
  - # 6
    frequency:   13.8733053957

- q-position: [    0.4795918,    0.0000000,    0.4795918 ]
  distance:    0.1773365
  band:
  - # 1
    frequency:    3.9767366745
  - # 2
    frequency:    3.9767367375
  - # 3
    frequency:   11.8931779648
  - # 4
    frequency:   12.5168889615
  - # 5
    frequency:   13.8639173290
  - # 6
    frequency:   13.8639173312

- q-position: [    0.4897959,    0.0000000,    0.4897959 ]
  distance:    0.1811097
  band:
  - # 1
    frequency:    3.9849466536
  - # 2
    frequency:    3.9849467166
  - # 3
    frequency:   12.0559282241
  - # 4
    frequency:   12.3677698910
  - # 5
    frequency:   13.8582592428
  - # 6
    frequency:   13.8582592446

- q-position: [    0.5000000,    0.0000000,    0.5000000 ]
  distance:    0.1848828
  band:
  - # 1
    frequency:    3.9876872178
  - # 2
    frequency:    3.9876872808
  - # 3
    frequency:   12.2141216930
  - # 4
    frequency:   12.2141217250
  - # 5
    frequency:   13.8563689866
  - # 6
    frequency:   13.8563689883

- q-position: [    0.5000000,    0.0000000,    0.5000000 ]
  distance:    0.1848828
  band:
  - # 1
    frequency:    3.9876872178
  - # 2
    frequency:    3.9876872808
  - # 3
    frequency:   12.2141216930
  - # 4
    frequency:   12.2141217250
  - # 5
    frequency:   13.8563689866
  - # 6
    frequency:   13.8563689883

- q-position: [    0.5025510,    0.0051020,    0.5025510 ]
  distance:    0.1862168
  band:
  - # 1
    frequency:    3.9878037575
  - # 2
    frequency:    3.9887803229
  - # 3
    frequency:   12.2132443503
  - # 4
    frequency:   12.2138773618
  - # 5
    frequency:   13.8565451185
  - # 6
    frequency:   13.8568334335

- q-position: [    0.5051020,    0.0102041,    0.5051020 ]
  distance:    0.1875508
  band:
  - # 1
    frequency:    3.9881530432
  - # 2
    frequency:    3.9920561333
  - # 3
    frequency:   12.2106159135
  - # 4
    frequency:   12.2131448501
  - # 5
    frequency:   13.8570733978
  - # 6
    frequency:   13.8582232718

- q-position: [    0.5076531,    0.0153061,    0.5076531 ]
  distance:    0.1888848
  band:
  - # 1
    frequency:    3.9887343905
  - # 2
    frequency:    3.9975044746
  - # 3
    frequency:   12.2062472295
  - # 4
    frequency:   12.2119257641
  - # 5
    frequency:   13.8579534871
  - # 6
    frequency:   13.8605280864

- q-position: [    0.5102041,    0.0204082,    0.5102041 ]
  distance:    0.1902188
  band:
  - # 1
    frequency:    3.9895466077
  - # 2
    frequency:    4.0051084262
  - # 3
    frequency:   12.2001560631
  - # 4
    frequency:   12.2102227564
  - # 5
    frequency:   13.8591848223
  - # 6
    frequency:   13.8637308040

- q-position: [    0.5127551,    0.0255102,    0.5127551 ]
  distance:    0.1915528
  band:
  - # 1
    frequency:    3.9905880293
  - # 2
    frequency:    4.0148444843
  - # 3
    frequency:   12.1923667007
  - # 4
    frequency:   12.2080395444
  - # 5
    frequency:   13.8607666149
  - # 6
    frequency:   13.8678081060

- q-position: [    0.5153061,    0.0306122,    0.5153061 ]
  distance:    0.1928868
  band:
  - # 1
    frequency:    3.9918565201
  - # 2
    frequency:    4.0266827415
  - # 3
    frequency:   12.1829094045
  - # 4
    frequency:   12.2053809149
  - # 5
    frequency:   13.8626978521
  - # 6
    frequency:   13.8727309726

- q-position: [    0.5178571,    0.0357143,    0.5178571 ]
  distance:    0.1942208
  band:
  - # 1
    frequency:    3.9933494780
  - # 2
    frequency:    4.0405871109
  - # 3
    frequency:   12.1718197622
  - # 4
    frequency:   12.2022527291
  - # 5
    frequency:   13.8649772988
  - # 6
    frequency:   13.8784653326

- q-position: [    0.5204082,    0.0408163,    0.5204082 ]
  distance:    0.1955548
  band:
  - # 1
    frequency:    3.9950638400
  - # 2
    frequency:    4.0565155914
  - # 3
    frequency:   12.1591379636
  - # 4
    frequency:   12.1986619291
  - # 5
    frequency:   13.8676034983
  - # 6
    frequency:   13.8849727854

- q-position: [    0.5229592,    0.0459184,    0.5229592 ]
  distance:    0.1968888
  band:
  - # 1
    frequency:    3.9969960876
  - # 2
    frequency:    4.0744205651
  - # 3
    frequency:   12.1449080364
  - # 4
    frequency:   12.1946165452
  - # 5
    frequency:   13.8705747741
  - # 6
    frequency:   13.8922113637

- q-position: [    0.5255102,    0.0510204,    0.5255102 ]
  distance:    0.1982228
  band:
  - # 1
    frequency:    3.9991422530
  - # 2
    frequency:    4.0942491253
  - # 3
    frequency:   12.1291770720
  - # 4
    frequency:   12.1901257041
  - # 5
    frequency:   13.8738892318
  - # 6
    frequency:   13.9001363055

- q-position: [    0.5280612,    0.0561224,    0.5280612 ]
  distance:    0.1995568
  band:
  - # 1
    frequency:    4.0014979272
  - # 2
    frequency:    4.1159434257
  - # 3
    frequency:   12.1119944684
  - # 4
    frequency:   12.1851996389
  - # 5
    frequency:   13.8775447610
  - # 6
    frequency:   13.9087008101

- q-position: [    0.5306122,    0.0612245,    0.5306122 ]
  distance:    0.2008908
  band:
  - # 1
    frequency:    4.0040582678
  - # 2
    frequency:    4.1394410459
  - # 3
    frequency:   12.0934112124
  - # 4
    frequency:   12.1798496988
  - # 5
    frequency:   13.8815390379
  - # 6
    frequency:   13.9178567525

- q-position: [    0.5331633,    0.0663265,    0.5331633 ]
  distance:    0.2022248
  band:
  - # 1
    frequency:    4.0068180080
  - # 2
    frequency:    4.1646753671
  - # 3
    frequency:   12.0734792191
  - # 4
    frequency:   12.1740883602
  - # 5
    frequency:   13.8858695275
  - # 6
    frequency:   13.9275553423

- q-position: [    0.5357143,    0.0714286,    0.5357143 ]
  distance:    0.2035588
  band:
  - # 1
    frequency:    4.0097714659
  - # 2
    frequency:    4.1915759512
  - # 3
    frequency:   12.0522507396
  - # 4
    frequency:   12.1679292389
  - # 5
    frequency:   13.8905334865
  - # 6
    frequency:   13.9377477131

- q-position: [    0.5382653,    0.0765306,    0.5382653 ]
  distance:    0.2048928
  band:
  - # 1
    frequency:    4.0129125551
  - # 2
    frequency:    4.2200689196
  - # 3
    frequency:   12.0297778430
  - # 4
    frequency:   12.1613871018
  - # 5
    frequency:   13.8955279662
  - # 6
    frequency:   13.9483854370

- q-position: [    0.5408163,    0.0816327,    0.5408163 ]
  distance:    0.2062268
  band:
  - # 1
    frequency:    4.0162347956
  - # 2
    frequency:    4.2500773246
  - # 3
    frequency:   12.0061119764
  - # 4
    frequency:   12.1544778804
  - # 5
    frequency:   13.9008498158
  - # 6
    frequency:   13.9594209621

- q-position: [    0.5433673,    0.0867347,    0.5433673 ]
  distance:    0.2075608
  band:
  - # 1
    frequency:    4.0197313248
  - # 2
    frequency:    4.2815215107
  - # 3
    frequency:   11.9813036003
  - # 4
    frequency:   12.1472186835
  - # 5
    frequency:   13.9064956857
  - # 6
    frequency:   13.9708079729

- q-position: [    0.5459184,    0.0918367,    0.5459184 ]
  distance:    0.2088948
  band:
  - # 1
    frequency:    4.0233949098
  - # 2
    frequency:    4.3143194613
  - # 3
    frequency:   11.9554018961
  - # 4
    frequency:   12.1396278104
  - # 5
    frequency:   13.9124620308
  - # 6
    frequency:   13.9825016801

- q-position: [    0.5484694,    0.0969388,    0.5484694 ]
  distance:    0.2102288
  band:
  - # 1
    frequency:    4.0272179598
  - # 2
    frequency:    4.3483871284
  - # 3
    frequency:   11.9284545389
  - # 4
    frequency:   12.1317247643
  - # 5
    frequency:   13.9187451149
  - # 6
    frequency:   13.9944590427

- q-position: [    0.5510204,    0.1020408,    0.5510204 ]
  distance:    0.2115628
  band:
  - # 1
    frequency:    4.0311925391
  - # 2
    frequency:    4.3836387425
  - # 3
    frequency:   11.9005075296
  - # 4
    frequency:   12.1235302653
  - # 5
    frequency:   13.9253410141
  - # 6
    frequency:   14.0066389325

- q-position: [    0.5535714,    0.1071429,    0.5535714 ]
  distance:    0.2128968
  band:
  - # 1
    frequency:    4.0353103800
  - # 2
    frequency:    4.4199871013
  - # 3
    frequency:   11.8716050786
  - # 4
    frequency:   12.1150662623
  - # 5
    frequency:   13.9322456213
  - # 6
    frequency:   14.0190022458

- q-position: [    0.5561224,    0.1122449,    0.5561224 ]
  distance:    0.2142307
  band:
  - # 1
    frequency:    4.0395628967
  - # 2
    frequency:    4.4573438359
  - # 3
    frequency:   11.8417895328
  - # 4
    frequency:   12.1063559452
  - # 5
    frequency:   13.9394546500
  - # 6
    frequency:   14.0315119714

- q-position: [    0.5586735,    0.1173469,    0.5586735 ]
  distance:    0.2155647
  band:
  - # 1
    frequency:    4.0439411995
  - # 2
    frequency:    4.4956196548
  - # 3
    frequency:   11.8111013394
  - # 4
    frequency:   12.0974237545
  - # 5
    frequency:   13.9469636396
  - # 6
    frequency:   14.0441332224

- q-position: [    0.5612245,    0.1224490,    0.5612245 ]
  distance:    0.2168987
  band:
  - # 1
    frequency:    4.0484361083
  - # 2
    frequency:    4.5347245651
  - # 3
    frequency:   11.7795790395
  - # 4
    frequency:   12.0882953909
  - # 5
    frequency:   13.9547679593
  - # 6
    frequency:   14.0568332368

- q-position: [    0.5637755,    0.1275510,    0.5637755 ]
  distance:    0.2182327
  band:
  - # 1
    frequency:    4.0530381677
  - # 2
    frequency:    4.5745680717
  - # 3
    frequency:   11.7472592858
  - # 4
    frequency:   12.0789978219
  - # 5
    frequency:   13.9628628131
  - # 6
    frequency:   14.0695813548

- q-position: [    0.5663265,    0.1326531,    0.5663265 ]
  distance:    0.2195667
  band:
  - # 1
    frequency:    4.0577376612
  - # 2
    frequency:    4.6150593553
  - # 3
    frequency:   11.7141768787
  - # 4
    frequency:   12.0695592864
  - # 5
    frequency:   13.9712432449
  - # 6
    frequency:   14.0823489772

- q-position: [    0.5688776,    0.1377551,    0.5688776 ]
  distance:    0.2209007
  band:
  - # 1
    frequency:    4.0625246261
  - # 2
    frequency:    4.6561074312
  - # 3
    frequency:   11.6803648158
  - # 4
    frequency:   12.0600092968
  - # 5
    frequency:   13.9799041435
  - # 6
    frequency:   14.0951095093

- q-position: [    0.5714286,    0.1428571,    0.5714286 ]
  distance:    0.2222347
  band:
  - # 1
    frequency:    4.0673888680
  - # 2
    frequency:    4.6976212889
  - # 3
    frequency:   11.6458543520
  - # 4
    frequency:   12.0503786373
  - # 5
    frequency:   13.9888402476
  - # 6
    frequency:   14.1078382953

- q-position: [    0.5739796,    0.1479592,    0.5739796 ]
  distance:    0.2235687
  band:
  - # 1
    frequency:    4.0723199760
  - # 2
    frequency:    4.7395100167
  - # 3
    frequency:   11.6106750662
  - # 4
    frequency:   12.0406993583
  - # 5
    frequency:   13.9980461513
  - # 6
    frequency:   14.1205125447

- q-position: [    0.5765306,    0.1530612,    0.5765306 ]
  distance:    0.2249027
  band:
  - # 1
    frequency:    4.0773073374
  - # 2
    frequency:    4.7816829106
  - # 3
    frequency:   11.5748549325
  - # 4
    frequency:   12.0310047666
  - # 5
    frequency:   14.0075163096
  - # 6
    frequency:   14.1331112552

- q-position: [    0.5790816,    0.1581633,    0.5790816 ]
  distance:    0.2262367
  band:
  - # 1
    frequency:    4.0823401525
  - # 2
    frequency:    4.8240495715
  - # 3
    frequency:   11.5384203924
  - # 4
    frequency:   12.0213294104
  - # 5
    frequency:   14.0172450436
  - # 6
    frequency:   14.1456151323

- q-position: [    0.5816327,    0.1632653,    0.5816327 ]
  distance:    0.2275707
  band:
  - # 1
    frequency:    4.0874074493
  - # 2
    frequency:    4.8665199918
  - # 3
    frequency:   11.5013964286
  - # 4
    frequency:   12.0117090577
  - # 5
    frequency:   14.0272265464
  - # 6
    frequency:   14.1580065098

- q-position: [    0.5841837,    0.1683673,    0.5841837 ]
  distance:    0.2289047
  band:
  - # 1
    frequency:    4.0924980982
  - # 2
    frequency:    4.9090046346
  - # 3
    frequency:   11.4638066374
  - # 4
    frequency:   12.0021806688
  - # 5
    frequency:   14.0374548888
  - # 6
    frequency:   14.1702692692

- q-position: [    0.5867347,    0.1734694,    0.5867347 ]
  distance:    0.2302387
  band:
  - # 1
    frequency:    4.0976008269
  - # 2
    frequency:    4.9514145060
  - # 3
    frequency:   11.4256732986
  - # 4
    frequency:   11.9927823613
  - # 5
    frequency:   14.0479240248
  - # 6
    frequency:   14.1823887623

- q-position: [    0.5892857,    0.1785714,    0.5892857 ]
  distance:    0.2315727
  band:
  - # 1
    frequency:    4.1027042341
  - # 2
    frequency:    4.9936612247
  - # 3
    frequency:   11.3870174435
  - # 4
    frequency:   11.9835533665
  - # 5
    frequency:   14.0586277977
  - # 6
    frequency:   14.1943517355

- q-position: [    0.5918367,    0.1836735,    0.5918367 ]
  distance:    0.2329067
  band:
  - # 1
    frequency:    4.1077968042
  - # 2
    frequency:    5.0356570896
  - # 3
    frequency:   11.3478589199
  - # 4
    frequency:   11.9745339771
  - # 5
    frequency:   14.0695599460
  - # 6
    frequency:   14.2061462567

- q-position: [    0.5943878,    0.1887755,    0.5943878 ]
  distance:    0.2342407
  band:
  - # 1
    frequency:    4.1128669211
  - # 2
    frequency:    5.0773151477
  - # 3
    frequency:   11.3082164526
  - # 4
    frequency:   11.9657654848
  - # 5
    frequency:   14.0807141093
  - # 6
    frequency:   14.2177616463

- q-position: [    0.5969388,    0.1938776,    0.5969388 ]
  distance:    0.2355747
  band:
  - # 1
    frequency:    4.1179028822
  - # 2
    frequency:    5.1185492652
  - # 3
    frequency:   11.2681077018
  - # 4
    frequency:   11.9572901078
  - # 5
    frequency:   14.0920838341
  - # 6
    frequency:   14.2291884109

- q-position: [    0.5994898,    0.1989796,    0.5994898 ]