8    
1    

1    
  0.0100000000000000   0.0000000000001183   0.0000000000002533
  -0.1367186147    0.0000000002   -0.0000000053
  -0.0172651815    0.0000000040    0.0000000039
   0.0087251750    0.0000000042    0.0000000006
   0.0087251836   -0.0000000082    0.0000000109
   0.0342945522    0.0256084868    0.0256084926
   0.0342945432   -0.0256084821   -0.0256084955
   0.0339721700   -0.0249816249    0.0249816100
   0.0339721722    0.0249816199   -0.0249816172
