phonopy:
  version: "2.19.1"
  frequency_unit_conversion_factor: 15.633304
  symmetry_tolerance: 1.00000e-05

space_group:
  type: "Fd-3m"
  number: 227
  Hall_symbol: "F 4d 2 3 -1d"

supercell_matrix:
- [  -1,   1,   1 ]
- [   1,  -1,   1 ]
- [   1,   1,  -1 ]

primitive_cell:
  lattice:
  - [     0.000000000100000,     2.704416287198000,     2.704416287167000 ] # a
  - [     2.704416294294000,     0.000000000083000,     2.704416287184000 ] # b
  - [     2.704416294256999,     2.704416287178999,     0.000000000120000 ] # c
  points:
  - symbol: Si # 1
    coordinates: [  0.000000000008000,  0.000000000005000,  0.000000000019000 ]
    mass: 28.085000
  - symbol: Si # 2
    coordinates: [  0.249999999992000,  0.249999999994999,  0.249999999981000 ]
    mass: 28.085000
  reciprocal_lattice: # without 2pi
  - [    -0.184882778988644,     0.184882779464316,     0.184882779469033 ] # a*
  - [     0.184882778979278,    -0.184882779471357,     0.184882779466640 ] # b*
  - [     0.184882778984269,     0.184882779467050,    -0.184882779476006 ] # c*

unit_cell:
  lattice:
  - [     0.000000000100000,     2.704416287198000,     2.704416287167000 ] # a
  - [     2.704416294294000,     0.000000000083000,     2.704416287184000 ] # b
  - [     2.704416294257000,     2.704416287179000,     0.000000000120000 ] # c
  points:
  - symbol: Si # 1
    coordinates: [  0.000000000008000,  0.000000000005000,  0.000000000019000 ]
    mass: 28.085000
    reduced_to: 1
  - symbol: Si # 2
    coordinates: [  0.249999999992000,  0.249999999994999,  0.249999999981000 ]
    mass: 28.085000
    reduced_to: 2

supercell:
  lattice:
  - [     5.408832588450999,     0.000000000063999,     0.000000000137000 ] # a
  - [     0.000000000063000,     5.408832574293999,     0.000000000103000 ] # b
  - [     0.000000000137000,     0.000000000102000,     5.408832574231000 ] # c
  points:
  - symbol: Si # 1
    coordinates: [  0.000000000012000,  0.000000000013500,  0.000000000006500 ]
    mass: 28.085000
    reduced_to: 1
  - symbol: Si # 2
    coordinates: [  0.000000000012000,  0.500000000013500,  0.500000000006500 ]
    mass: 28.085000
    reduced_to: 1
  - symbol: Si # 3
    coordinates: [  0.500000000012000,  0.000000000013500,  0.500000000006500 ]
    mass: 28.085000
    reduced_to: 1
  - symbol: Si # 4
    coordinates: [  0.500000000012000,  0.500000000013500,  0.000000000006500 ]
    mass: 28.085000
    reduced_to: 1
  - symbol: Si # 5
    coordinates: [  0.249999999987999,  0.249999999986500,  0.249999999993500 ]
    mass: 28.085000
    reduced_to: 5
  - symbol: Si # 6
    coordinates: [  0.249999999987999,  0.749999999986500,  0.749999999993500 ]
    mass: 28.085000
    reduced_to: 5
  - symbol: Si # 7
    coordinates: [  0.749999999987999,  0.249999999986500,  0.749999999993500 ]
    mass: 28.085000
    reduced_to: 5
  - symbol: Si # 8
    coordinates: [  0.749999999987999,  0.749999999986500,  0.249999999993500 ]
    mass: 28.085000
    reduced_to: 5

displacements:
- atom:    1
  displacement:
    [   0.0100000000000000,  0.0000000000001183,  0.0000000000002533 ]
  forces:
  - [  -0.1367186146638710,  0.0000000001752917, -0.0000000053476368 ]
  - [  -0.0172651815125252,  0.0000000040284200,  0.0000000038956286 ]
  - [   0.0087251750414008,  0.0000000041852569,  0.0000000006309259 ]
  - [   0.0087251835930877, -0.0000000081967731,  0.0000000109308313 ]
  - [   0.0342945521944715,  0.0256084868332413,  0.0256084925946511 ]
  - [   0.0342945431552933, -0.0256084820587221, -0.0256084954992236 ]
  - [   0.0339721699871117, -0.0249816248932806,  0.0249816099702891 ]
  - [   0.0339721722050314,  0.0249816199265660, -0.0249816171754656 ]
