nqpoint: 200    
npath: 4      
segment_nqpoint:
- 50
- 50
- 50
- 50
labels:
- [ 'G', 'X' ]
- [ 'X', 'U|K' ]
- [ 'U|K', 'G' ]
- [ 'G', 'L' ]
reciprocal_lattice:
- [  -0.18455273,   0.18455274,   0.18455274 ] # a*
- [   0.18455273,  -0.18455274,   0.18455274 ] # b*
- [   0.18455273,   0.18455274,  -0.18455274 ] # c*
natom: 2      
lattice:
- [    -0.000000000001000,     2.709252719577000,     2.709252719609999 ] # a
- [     2.709252757352000,    -0.000000000010000,     2.709252719619000 ] # b
- [     2.709252757329000,     2.709252719563000,     0.000000000013000 ] # c
points:
- symbol: Si # 1
  coordinates: [  0.999999999986000,  0.999999999992999,  0.000000000018000 ]
  mass: 28.085000
- symbol: Si # 2
  coordinates: [  0.250000000013998,  0.250000000007000,  0.249999999982001 ]
  mass: 28.085000

phonon:
- q-position: [    0.0000000,    0.0000000,    0.0000000 ]
  distance:    0.0000000
  band:
  - # 1
    frequency:   -0.0000005497
  - # 2
    frequency:   -0.0000002539
  - # 3
    frequency:    0.0000002806
  - # 4
    frequency:   15.4722425471
  - # 5
    frequency:   15.4722425471
  - # 6
    frequency:   15.4722425471

- q-position: [    0.0102041,    0.0000000,    0.0102041 ]
  distance:    0.0037664
  band:
  - # 1
    frequency:    0.2132268050
  - # 2
    frequency:    0.2132268050
  - # 3
    frequency:    0.2546431632
  - # 4
    frequency:   15.4680248696
  - # 5
    frequency:   15.4680248696
  - # 6
    frequency:   15.4711664779

- q-position: [    0.0204082,    0.0000000,    0.0204082 ]
  distance:    0.0075328
  band:
  - # 1
    frequency:    0.4255470024
  - # 2
    frequency:    0.4255470024
  - # 3
    frequency:    0.5125515748
  - # 4
    frequency:   15.4554521426
  - # 5
    frequency:   15.4554521426
  - # 6
    frequency:   15.4679419774

- q-position: [    0.0306122,    0.0000000,    0.0306122 ]
  distance:    0.0112991
  band:
  - # 1
    frequency:    0.6360667227
  - # 2
    frequency:    0.6360667227
  - # 3
    frequency:    0.7766565055
  - # 4
    frequency:   15.4347621363
  - # 5
    frequency:   15.4347621363
  - # 6
    frequency:   15.4625789282

- q-position: [    0.0408163,    0.0000000,    0.0408163 ]
  distance:    0.0150655
  band:
  - # 1
    frequency:    0.8439173738
  - # 2
    frequency:    0.8439173738
  - # 3
    frequency:    1.0492727586
  - # 4
    frequency:   15.4063408238
  - # 5
    frequency:   15.4063408238
  - # 6
    frequency:   15.4550899066

- q-position: [    0.0510204,    0.0000000,    0.0510204 ]
  distance:    0.0188319
  band:
  - # 1
    frequency:    1.0482677629
  - # 2
    frequency:    1.0482677629
  - # 3
    frequency:    1.3319052812
  - # 4
    frequency:   15.3707075232
  - # 5
    frequency:   15.3707075232
  - # 6
    frequency:   15.4454851207

- q-position: [    0.0612245,    0.0000000,    0.0612245 ]
  distance:    0.0225983
  band:
  - # 1
    frequency:    1.2483355515
  - # 2
    frequency:    1.2483355516
  - # 3
    frequency:    1.6251609977
  - # 4
    frequency:   15.3284952757
  - # 5
    frequency:   15.3284952758
  - # 6
    frequency:   15.4337667425

- q-position: [    0.0714286,    0.0000000,    0.0714286 ]
  distance:    0.0263647
  band:
  - # 1
    frequency:    1.4433977531
  - # 2
    frequency:    1.4433977532
  - # 3
    frequency:    1.9287612598
  - # 4
    frequency:   15.2804275598
  - # 5
    frequency:   15.2804275598
  - # 6
    frequency:   15.4199237519

- q-position: [    0.0816327,    0.0000000,    0.0816327 ]
  distance:    0.0301311
  band:
  - # 1
    frequency:    1.6327999427
  - # 2
    frequency:    1.6327999429
  - # 3
    frequency:    2.2416362173
  - # 4
    frequency:   15.2272926402
  - # 5
    frequency:   15.2272926402
  - # 6
    frequency:   15.4039283481

- q-position: [    0.0918367,    0.0000000,    0.0918367 ]
  distance:    0.0338974
  band:
  - # 1
    frequency:    1.8159638221
  - # 2
    frequency:    1.8159638223
  - # 3
    frequency:    2.5620764090
  - # 4
    frequency:   15.1699169694
  - # 5
    frequency:   15.1699169695
  - # 6
    frequency:   15.3857347384

- q-position: [    0.1020408,    0.0000000,    0.1020408 ]
  distance:    0.0376638
  band:
  - # 1
    frequency:    1.9923927850
  - # 2
    frequency:    1.9923927852
  - # 3
    frequency:    2.8879171175
  - # 4
    frequency:   15.1091390843
  - # 5
    frequency:   15.1091390843
  - # 6
    frequency:   15.3652807081

- q-position: [    0.1122449,    0.0000000,    0.1122449 ]
  distance:    0.0414302
  band:
  - # 1
    frequency:    2.1616751660
  - # 2
    frequency:    2.1616751662
  - # 3
    frequency:    3.2167346018
  - # 4
    frequency:   15.0457853612
  - # 5
    frequency:   15.0457853612
  - # 6
    frequency:   15.3424918849

- q-position: [    0.1224490,    0.0000000,    0.1224490 ]
  distance:    0.0451966
  band:
  - # 1
    frequency:    2.3234849456
  - # 2
    frequency:    2.3234849458
  - # 3
    frequency:    3.5460378108
  - # 4
    frequency:   14.9806488172
  - # 5
    frequency:   14.9806488172
  - # 6
    frequency:   15.3172881196

- q-position: [    0.1326531,    0.0000000,    0.1326531 ]
  distance:    0.0489630
  band:
  - # 1
    frequency:    2.4775798197
  - # 2
    frequency:    2.4775798199
  - # 3
    frequency:    3.8734432593
  - # 4
    frequency:   14.9144718732
  - # 5
    frequency:   14.9144718733
  - # 6
    frequency:   15.2895909898

- q-position: [    0.1428571,    0.0000000,    0.1428571 ]
  distance:    0.0527294
  band:
  - # 1
    frequency:    2.6237967256
  - # 2
    frequency:    2.6237967258
  - # 3
    frequency:    4.1968239796
  - # 4
    frequency:   14.8479336547
  - # 5
    frequency:   14.8479336548
  - # 6
    frequency:   15.2593311784

- q-position: [    0.1530612,    0.0000000,    0.1530612 ]
  distance:    0.0564957
  band:
  - # 1
    frequency:    2.7620451209
  - # 2
    frequency:    2.7620451211
  - # 3
    frequency:    4.5144259416
  - # 4
    frequency:   14.7816420204
  - # 5
    frequency:   14.7816420205
  - # 6
    frequency:   15.2264544243

- q-position: [    0.1632653,    0.0000000,    0.1632653 ]
  distance:    0.0602621
  band:
  - # 1
    frequency:    2.8922985204
  - # 2
    frequency:    2.8922985206
  - # 3
    frequency:    4.8249473875
  - # 4
    frequency:   14.7161301244
  - # 5
    frequency:   14.7161301245
  - # 6
    frequency:   15.1909249119

- q-position: [    0.1734694,    0.0000000,    0.1734694 ]
  distance:    0.0640285
  band:
  - # 1
    frequency:    3.0145849679
  - # 2
    frequency:    3.0145849682
  - # 3
    frequency:    5.1275784726
  - # 4
    frequency:   14.6518569629
  - # 5
    frequency:   14.6518569629
  - # 6
    frequency:   15.1527253380

- q-position: [    0.1836735,    0.0000000,    0.1836735 ]
  distance:    0.0677949
  band:
  - # 1
    frequency:    3.1289772338
  - # 2
    frequency:    3.1289772341
  - # 3
    frequency:    5.4220007073
  - # 4
    frequency:   14.5892110815
  - # 5
    frequency:   14.5892110816
  - # 6
    frequency:   15.1118534111

- q-position: [    0.1938776,    0.0000000,    0.1938776 ]
  distance:    0.0715613
  band:
  - # 1
    frequency:    3.2355835497
  - # 2
    frequency:    3.2355835500
  - # 3
    frequency:    5.7083480846
  - # 4
    frequency:   14.5285164488
  - # 5
    frequency:   14.5285164488
  - # 6
    frequency:   15.0683151333

- q-position: [    0.2040816,    0.0000000,    0.2040816 ]
  distance:    0.0753276
  band:
  - # 1
    frequency:    3.3345396161
  - # 2
    frequency:    3.3345396164
  - # 3
    frequency:    5.9871344352
  - # 4
    frequency:   14.4700394491
  - # 5
    frequency:   14.4700394491
  - # 6
    frequency:   15.0221157750

- q-position: [    0.2142857,    0.0000000,    0.2142857 ]
  distance:    0.0790940
  band:
  - # 1
    frequency:    3.4260024487
  - # 2
    frequency:    3.4260024491
  - # 3
    frequency:    6.2591542891
  - # 4
    frequency:   14.4139960261
  - # 5
    frequency:   14.4139960262
  - # 6
    frequency:   14.9732499063

- q-position: [    0.2244898,    0.0000000,    0.2244898 ]
  distance:    0.0828604
  band:
  - # 1
    frequency:    3.5101463814
  - # 2
    frequency:    3.5101463818
  - # 3
    frequency:    6.5253670066
  - # 4
    frequency:   14.3605581849
  - # 5
    frequency:   14.3605581850
  - # 6
    frequency:   14.9216920960

- q-position: [    0.2346939,    0.0000000,    0.2346939 ]
  distance:    0.0866268
  band:
  - # 1
    frequency:    3.5871612615
  - # 2
    frequency:    3.5871612619
  - # 3
    frequency:    6.7867757247
  - # 4
    frequency:   14.3098593166
  - # 5
    frequency:   14.3098593167
  - # 6
    frequency:   14.8673898906

- q-position: [    0.2448980,    0.0000000,    0.2448980 ]
  distance:    0.0903932
  band:
  - # 1
    frequency:    3.6572525891
  - # 2
    frequency:    3.6572525895
  - # 3
    frequency:    7.0443133099
  - # 4
    frequency:   14.2619981036
  - # 5
    frequency:   14.2619981037
  - # 6
    frequency:   14.8102604253

- q-position: [    0.2551020,    0.0000000,    0.2551020 ]
  distance:    0.0941596
  band:
  - # 1
    frequency:    3.7206431127
  - # 2
    frequency:    3.7206431132
  - # 3
    frequency:    7.2987467044
  - # 4
    frequency:   14.2170410436
  - # 5
    frequency:   14.2170410437
  - # 6
    frequency:   14.7501915166

- q-position: [    0.2653061,    0.0000000,    0.2653061 ]
  distance:    0.0979259
  band:
  - # 1
    frequency:    3.7775752318
  - # 2
    frequency:    3.7775752323
  - # 3
    frequency:    7.5506087402
  - # 4
    frequency:   14.1750238735
  - # 5
    frequency:   14.1750238736
  - # 6
    frequency:   14.6870474263

- q-position: [    0.2755102,    0.0000000,    0.2755102 ]
  distance:    0.1016923
  band:
  - # 1
    frequency:    3.8283134911
  - # 2
    frequency:    3.8283134915
  - # 3
    frequency:    7.8001629374
  - # 4
    frequency:   14.1359523307
  - # 5
    frequency:   14.1359523309
  - # 6
    frequency:   14.6206787481

- q-position: [    0.2857143,    0.0000000,    0.2857143 ]
  distance:    0.1054587
  band:
  - # 1
    frequency:    3.8731464903
  - # 2
    frequency:    3.8731464907
  - # 3
    frequency:    8.0474025447
  - # 4
    frequency:   14.0998027656
  - # 5
    frequency:   14.0998027657
  - # 6
    frequency:   14.5509351816

- q-position: [    0.2959184,    0.0000000,    0.2959184 ]
  distance:    0.1092251
  band:
  - # 1
    frequency:    3.9123876652
  - # 2
    frequency:    3.9123876657
  - # 3
    frequency:    8.2920808263
  - # 4
    frequency:   14.0665230911
  - # 5
    frequency:   14.0665230913
  - # 6
    frequency:   14.4776794244

- q-position: [    0.3061224,    0.0000000,    0.3061224 ]
  distance:    0.1129915
  band:
  - # 1
    frequency:    3.9463745913
  - # 2
    frequency:    3.9463745918
  - # 3
    frequency:    8.5337660177
  - # 4
    frequency:   14.0360344565
  - # 5
    frequency:   14.0360344566
  - # 6
    frequency:   14.4008001278

- q-position: [    0.3163265,    0.0000000,    0.3163265 ]
  distance:    0.1167579
  band:
  - # 1
    frequency:    3.9754666951
  - # 2
    frequency:    3.9754666955
  - # 3
    frequency:    8.7719119778
  - # 4
    frequency:   14.0082338722
  - # 5
    frequency:   14.0082338724
  - # 6
    frequency:   14.3202218787

- q-position: [    0.3265306,    0.0000000,    0.3265306 ]
  distance:    0.1205242
  band:
  - # 1
    frequency:    4.0000414878
  - # 2
    frequency:    4.0000414883
  - # 3
    frequency:    9.0059345661
  - # 4
    frequency:   13.9829978337
  - # 5
    frequency:   13.9829978339
  - # 6
    frequency:   14.2359105026

- q-position: [    0.3367347,    0.0000000,    0.3367347 ]
  distance:    0.1242906
  band:
  - # 1
    frequency:    4.0204896269
  - # 2
    frequency:    4.0204896274
  - # 3
    frequency:    9.2352841446
  - # 4
    frequency:   13.9601868143
  - # 5
    frequency:   13.9601868144
  - # 6
    frequency:   14.1478725938

- q-position: [    0.3469388,    0.0000000,    0.3469388 ]
  distance:    0.1280570
  band:
  - # 1
    frequency:    4.0372092397
  - # 2
    frequency:    4.0372092402
  - # 3
    frequency:    9.4595060945
  - # 4
    frequency:   13.9396503594
  - # 5
    frequency:   13.9396503596
  - # 6
    frequency:   14.0561489953

- q-position: [    0.3571429,    0.0000000,    0.3571429 ]
  distance:    0.1318234
  band:
  - # 1
    frequency:    4.0505999960
  - # 2
    frequency:    4.0505999965
  - # 3
    frequency:    9.6782835058
  - # 4
    frequency:   13.9212324249
  - # 5
    frequency:   13.9212324251
  - # 6
    frequency:   13.9608028530

- q-position: [    0.3673469,    0.0000000,    0.3673469 ]
  distance:    0.1355898
  band:
  - # 1
    frequency:    4.0610573860
  - # 2
    frequency:    4.0610573865
  - # 3
    frequency:    9.8914588761
  - # 4
    frequency:   13.8619037365
  - # 5
    frequency:   13.9047765743
  - # 6
    frequency:   13.9047765744

- q-position: [    0.3775510,    0.0000000,    0.3775510 ]
  distance:    0.1393561
  band:
  - # 1
    frequency:    4.0689675664
  - # 2
    frequency:    4.0689675669
  - # 3
    frequency:   10.0990344010
  - # 4
    frequency:   13.7595100083
  - # 5
    frequency:   13.8901306813
  - # 6
    frequency:   13.8901306815

- q-position: [    0.3877551,    0.0000000,    0.3877551 ]
  distance:    0.1431225
  band:
  - # 1
    frequency:    4.0747029926
  - # 2
    frequency:    4.0747029930
  - # 3
    frequency:   10.3011529654
  - # 4
    frequency:   13.6536520266
  - # 5
    frequency:   13.8771508603
  - # 6
    frequency:   13.8771508604

- q-position: [    0.3979592,    0.0000000,    0.3979592 ]
  distance:    0.1468889
  band:
  - # 1
    frequency:    4.0786188986
  - # 2
    frequency:    4.0786188990
  - # 3
    frequency:   10.4980640234
  - # 4
    frequency:   13.5443188006
  - # 5
    frequency:   13.8657044505
  - # 6
    frequency:   13.8657044506

- q-position: [    0.4081633,    0.0000000,    0.4081633 ]
  distance:    0.1506553
  band:
  - # 1
    frequency:    4.0810505365
  - # 2
    frequency:    4.0810505368
  - # 3
    frequency:   10.6900799971
  - # 4
    frequency:   13.4314503521
  - # 5
    frequency:   13.8556720008
  - # 6
    frequency:   13.8556720009

- q-position: [    0.4183673,    0.0000000,    0.4183673 ]
  distance:    0.1544217
  band:
  - # 1
    frequency:    4.0823109747
  - # 2
    frequency:    4.0823109750
  - # 3
    frequency:   10.8775295217
  - # 4
    frequency:   13.3149373016
  - # 5
    frequency:   13.8469483024
  - # 6
    frequency:   13.8469483025

- q-position: [    0.4285714,    0.0000000,    0.4285714 ]
  distance:    0.1581881
  band:
  - # 1
    frequency:    4.0826892010
  - # 2
    frequency:    4.0826892013
  - # 3
    frequency:   11.0607137533
  - # 4
    frequency:   13.1946281895
  - # 5
    frequency:   13.8394426055
  - # 6
    frequency:   13.8394426056

- q-position: [    0.4387755,    0.0000000,    0.4387755 ]
  distance:    0.1619544
  band:
  - # 1
    frequency:    4.0824482766
  - # 2
    frequency:    4.0824482769
  - # 3
    frequency:   11.2398710911
  - # 4
    frequency:   13.0703438909
  - # 5
    frequency:   13.8330782096
  - # 6
    frequency:   13.8330782097

- q-position: [    0.4489796,    0.0000000,    0.4489796 ]
  distance:    0.1657208
  band:
  - # 1
    frequency:    4.0818233513
  - # 2
    frequency:    4.0818233515
  - # 3
    frequency:   11.4151541670
  - # 4
    frequency:   12.9418973667
  - # 5
    frequency:   13.8277916346
  - # 6
    frequency:   13.8277916346

- q-position: [    0.4591837,    0.0000000,    0.4591837 ]
  distance:    0.1694872
  band:
  - # 1
    frequency:    4.0810194494
  - # 2
    frequency:    4.0810194496
  - # 3
    frequency:   11.5866210492
  - # 4
    frequency:   12.8091160706
  - # 5
    frequency:   13.8235315755
  - # 6
    frequency:   13.8235315755

- q-position: [    0.4693878,    0.0000000,    0.4693878 ]
  distance:    0.1732536
  band:
  - # 1
    frequency:    4.0802090552
  - # 2
    frequency:    4.0802090554
  - # 3
    frequency:   11.7542405631
  - # 4
    frequency:   12.6718637685
  - # 5
    frequency:   13.8202578105
  - # 6
    frequency:   13.8202578106

- q-position: [    0.4795918,    0.0000000,    0.4795918 ]
  distance:    0.1770200
  band:
  - # 1
    frequency:    4.0795296392
  - # 2
    frequency:    4.0795296393
  - # 3
    frequency:   11.9179097461
  - # 4
    frequency:   12.5300583991
  - # 5
    frequency:   13.8179401926
  - # 6
    frequency:   13.8179401926

- q-position: [    0.4897959,    0.0000000,    0.4897959 ]
  distance:    0.1807864
  band:
  - # 1
    frequency:    4.0790813459
  - # 2
    frequency:    4.0790813459
  - # 3
    frequency:   12.0774799701
  - # 4
    frequency:   12.3836829771
  - # 5
    frequency:   13.8165578103
  - # 6
    frequency:   13.8165578103

- q-position: [    0.5000000,    0.0000000,    0.5000000 ]
  distance:    0.1845527
  band:
  - # 1
    frequency:    4.0789250973
  - # 2
    frequency:    4.0789250973
  - # 3
    frequency:   12.2327873689
  - # 4
    frequency:   12.2327873689
  - # 5
    frequency:   13.8160983683
  - # 6
    frequency:   13.8160983683

- q-position: [    0.5000000,    0.0000000,    0.5000000 ]
  distance:    0.1845527
  band:
  - # 1
    frequency:    4.0789250973
  - # 2
    frequency:    4.0789250973
  - # 3
    frequency:   12.2327873689
  - # 4
    frequency:   12.2327873689
  - # 5
    frequency:   13.8160983683
  - # 6
    frequency:   13.8160983683

- q-position: [    0.5025510,    0.0051020,    0.5025510 ]
  distance:    0.1858844
  band:
  - # 1
    frequency:    4.0790430644
  - # 2
    frequency:    4.0809718278
  - # 3
    frequency:   12.2315020445
  - # 4
    frequency:   12.2319738195
  - # 5
    frequency:   13.8160958343
  - # 6
    frequency:   13.8165192433

- q-position: [    0.5051020,    0.0102041,    0.5051020 ]
  distance:    0.1872160
  band:
  - # 1
    frequency:    4.0793957744
  - # 2
    frequency:    4.0870973087
  - # 3
    frequency:   12.2276546003
  - # 4
    frequency:   12.2295360116
  - # 5
    frequency:   13.8160885441
  - # 6
    frequency:   13.8177791663

- q-position: [    0.5076531,    0.0153061,    0.5076531 ]
  distance:    0.1885476
  band:
  - # 1
    frequency:    4.0799796884
  - # 2
    frequency:    4.0972576990
  - # 3
    frequency:   12.2212705192
  - # 4
    frequency:   12.2254824027
  - # 5
    frequency:   13.8160774257
  - # 6
    frequency:   13.8198700971

- q-position: [    0.5102041,    0.0204082,    0.5102041 ]
  distance:    0.1898792
  band:
  - # 1
    frequency:    4.0807890235
  - # 2
    frequency:    4.1113808843
  - # 3
    frequency:   12.2123919317
  - # 4
    frequency:   12.2198268794
  - # 5
    frequency:   13.8160640057
  - # 6
    frequency:   13.8227788508

- q-position: [    0.5127551,    0.0255102,    0.5127551 ]
  distance:    0.1912108
  band:
  - # 1
    frequency:    4.0818159206
  - # 2
    frequency:    4.1293678666
  - # 3
    frequency:   12.2010771085
  - # 4
    frequency:   12.2125884561
  - # 5
    frequency:   13.8160503779
  - # 6
    frequency:   13.8264874080

- q-position: [    0.5153061,    0.0306122,    0.5153061 ]
  distance:    0.1925424
  band:
  - # 1
    frequency:    4.0830506720
  - # 2
    frequency:    4.1510946298
  - # 3
    frequency:   12.1873997633
  - # 4
    frequency:   12.2037908755
  - # 5
    frequency:   13.8160391624
  - # 6
    frequency:   13.8309733269

- q-position: [    0.5178571,    0.0357143,    0.5178571 ]
  distance:    0.1938741
  band:
  - # 1
    frequency:    4.0844820017
  - # 2
    frequency:    4.1764144081
  - # 3
    frequency:   12.1714481755
  - # 4
    frequency:   12.1934621317
  - # 5
    frequency:   13.8160334543
  - # 6
    frequency:   13.8362102362

- q-position: [    0.5204082,    0.0408163,    0.5204082 ]
  distance:    0.1952057
  band:
  - # 1
    frequency:    4.0860973860
  - # 2
    frequency:    4.2051602729
  - # 3
    frequency:   12.1533241475
  - # 4
    frequency:   12.1816339373
  - # 5
    frequency:   13.8160367644
  - # 6
    frequency:   13.8421683852

- q-position: [    0.5229592,    0.0459184,    0.5229592 ]
  distance:    0.1965373
  band:
  - # 1
    frequency:    4.0878834084
  - # 2
    frequency:    4.2371479479
  - # 3
    frequency:   12.1331418150
  - # 4
    frequency:   12.1683411598
  - # 5
    frequency:   13.8160529534
  - # 6
    frequency:   13.8488152276

- q-position: [    0.5255102,    0.0510204,    0.5255102 ]
  distance:    0.1978689
  band:
  - # 1
    frequency:    4.0898261324
  - # 2
    frequency:    4.2721787618
  - # 3
    frequency:   12.1110263285
  - # 4
    frequency:   12.1536212485
  - # 5
    frequency:   13.8160861618
  - # 6
    frequency:   13.8561160165

- q-position: [    0.5280612,    0.0561224,    0.5280612 ]
  distance:    0.1992005
  band:
  - # 1
    frequency:    4.0919114833
  - # 2
    frequency:    4.3100426505
  - # 3
    frequency:   12.0871124292
  - # 4
    frequency:   12.1375136717
  - # 5
    frequency:   13.8161407368
  - # 6
    frequency:   13.8640343881

- q-position: [    0.5306122,    0.0612245,    0.5306122 ]
  distance:    0.2005321
  band:
  - # 1
    frequency:    4.0941256247
  - # 2
    frequency:    4.3505211308
  - # 3
    frequency:   12.0615429436
  - # 4
    frequency:   12.1200593830
  - # 5
    frequency:   13.8162211595
  - # 6
    frequency:   13.8725329176

- q-position: [    0.5331633,    0.0663265,    0.5331633 ]
  distance:    0.2018638
  band:
  - # 1
    frequency:    4.0964553181
  - # 2
    frequency:    4.3933901745
  - # 3
    frequency:   12.0344672220
  - # 4
    frequency:   12.1013003279
  - # 5
    frequency:   13.8163319726
  - # 6
    frequency:   13.8815736334

- q-position: [    0.5357143,    0.0714286,    0.5357143 ]
  distance:    0.2031954
  band:
  - # 1
    frequency:    4.0988882534
  - # 2
    frequency:    4.4384229278
  - # 3
    frequency:   12.0060395475
  - # 4
    frequency:   12.0812790007
  - # 5
    frequency:   13.8164777131
  - # 6
    frequency:   13.8911184777

- q-position: [    0.5382653,    0.0765306,    0.5382653 ]
  distance:    0.2045270
  band:
  - # 1
    frequency:    4.1014133397
  - # 2
    frequency:    4.4853922289
  - # 3
    frequency:   11.9764175440
  - # 4
    frequency:   12.0600380573
  - # 5
    frequency:   13.8166628492
  - # 6
    frequency:   13.9011297102

- q-position: [    0.5408163,    0.0816327,    0.5408163 ]
  distance:    0.2058586
  band:
  - # 1
    frequency:    4.1040209477
  - # 2
    frequency:    4.5340728907
  - # 3
    frequency:   11.9457606101
  - # 4
    frequency:   12.0376199849
  - # 5
    frequency:   13.8168917242
  - # 6
    frequency:   13.9115702485

- q-position: [    0.5433673,    0.0867347,    0.5433673 ]
  distance:    0.2071902
  band:
  - # 1
    frequency:    4.1067030943
  - # 2
    frequency:    4.5842437278
  - # 3
    frequency:   11.9142284064
  - # 4
    frequency:   12.0140668284
  - # 5
    frequency:   13.8171685098
  - # 6
    frequency:   13.9224039485

- q-position: [    0.5459184,    0.0918367,    0.5459184 ]
  distance:    0.2085218
  band:
  - # 1
    frequency:    4.1094535651
  - # 2
    frequency:    4.6356893108
  - # 3
    frequency:   11.8819794221
  - # 4
    frequency:   11.9894199704
  - # 5
    frequency:   13.8174971671
  - # 6
    frequency:   13.9335958241

- q-position: [    0.5484694,    0.0969388,    0.5484694 ]
  distance:    0.2098535
  band:
  - # 1
    frequency:    4.1122679700
  - # 2
    frequency:    4.6882014476
  - # 3
    frequency:   11.8491696457
  - # 4
    frequency:   11.9637199588
  - # 5
    frequency:   13.8178814191
  - # 6
    frequency:   13.9451122129

- q-position: [    0.5510204,    0.1020408,    0.5510204 ]
  distance:    0.2111851
  band:
  - # 1
    frequency:    4.1151437293
  - # 2
    frequency:    4.7415803882
  - # 3
    frequency:   11.8159513624
  - # 4
    frequency:   11.9370063776
  - # 5
    frequency:   13.8183247326
  - # 6
    frequency:   13.9569208899

- q-position: [    0.5535714,    0.1071429,    0.5535714 ]
  distance:    0.2125167
  band:
  - # 1
    frequency:    4.1180799932
  - # 2
    frequency:    4.7956357634
  - # 3
    frequency:   11.7824720962
  - # 4
    frequency:   11.9093177542
  - # 5
    frequency:   13.8188303111
  - # 6
    frequency:   13.9689911386

- q-position: [    0.5561224,    0.1122449,    0.5561224 ]
  distance:    0.2138483
  band:
  - # 1
    frequency:    4.1210774943
  - # 2
    frequency:    4.8501872654
  - # 3
    frequency:   11.7488737143
  - # 4
    frequency:   11.8806914961
  - # 5
    frequency:   13.8194010972
  - # 6
    frequency:   13.9812937813

- q-position: [    0.5586735,    0.1173469,    0.5586735 ]
  distance:    0.2151799
  band:
  - # 1
    frequency:    4.1241383399
  - # 2
    frequency:    4.9050650850
  - # 3
    frequency:   11.7152917045
  - # 4
    frequency:   11.8511638519
  - # 5
    frequency:   13.8200397849
  - # 6
    frequency:   13.9938011790

- q-position: [    0.5612245,    0.1224490,    0.5612245 ]
  distance:    0.2165115
  band:
  - # 1
    frequency:    4.1272657500
  - # 2
    frequency:    4.9601101215
  - # 3
    frequency:   11.6818546332
  - # 4
    frequency:   11.8207698897
  - # 5
    frequency:   13.8207488402
  - # 6
    frequency:   14.0064872026

- q-position: [    0.5637755,    0.1275510,    0.5637755 ]
  distance:    0.2178432
  band:
  - # 1
    frequency:    4.1304637496
  - # 2
    frequency:    5.0151739837
  - # 3
    frequency:   11.6486837866
  - # 4
    frequency:   11.7895434895
  - # 5
    frequency:   13.8215305290
  - # 6
    frequency:   14.0193271837

- q-position: [    0.5663265,    0.1326531,    0.5663265 ]
  distance:    0.2191748
  band:
  - # 1
    frequency:    4.1337368258
  - # 2
    frequency:    5.0701188016
  - # 3
    frequency:   11.6158929942
  - # 4
    frequency:   11.7575173439
  - # 5
    frequency:   13.8223869501
  - # 6
    frequency:   14.0322978489

- q-position: [    0.5688776,    0.1377551,    0.5688776 ]
  distance:    0.2205064
  band:
  - # 1
    frequency:    4.1370895596
  - # 2
    frequency:    5.1248168713
  - # 3
    frequency:   11.5835886241
  - # 4
    frequency:   11.7247229646
  - # 5
    frequency:   13.8233200740
  - # 6
    frequency:   14.0453772418

- q-position: [    0.5714286,    0.1428571,    0.5714286 ]
  distance:    0.2218380
  band:
  - # 1
    frequency:    4.1405262463
  - # 2
    frequency:    5.1791501553
  - # 3
    frequency:   11.5518697416
  - # 4
    frequency:   11.6911906919
  - # 5
    frequency:   13.8243317821
  - # 6
    frequency:   14.0585446365

- q-position: [    0.5739796,    0.1479592,    0.5739796 ]
  distance:    0.2231696
  band:
  - # 1
    frequency:    4.1440505159
  - # 2
    frequency:    5.2330096638
  - # 3
    frequency:   11.5208284115
  - # 4
    frequency:   11.6569497045
  - # 5
    frequency:   13.8254239089
  - # 6
    frequency:   14.0717804476

- q-position: [    0.5765306,    0.1530612,    0.5765306 ]
  distance:    0.2245013
  band:
  - # 1
    frequency:    4.1476649666
  - # 2
    frequency:    5.2862947411
  - # 3
    frequency:   11.4905501249
  - # 4
    frequency:   11.6220280304
  - # 5
    frequency:   13.8265982817
  - # 6
    frequency:   14.0850661374

- q-position: [    0.5790816,    0.1581633,    0.5790816 ]
  distance:    0.2258329
  band:
  - # 1
    frequency:    4.1513708234
  - # 2
    frequency:    5.3389122850
  - # 3
    frequency:   11.4611143240
  - # 4
    frequency:   11.5864525563
  - # 5
    frequency:   13.8278567589
  - # 6
    frequency:   14.0983841249

- q-position: [    0.5816327,    0.1632653,    0.5816327 ]
  distance:    0.2271645
  band:
  - # 1
    frequency:    4.1551676341
  - # 2
    frequency:    5.3907759252
  - # 3
    frequency:   11.4325950008
  - # 4
    frequency:   11.5502490366
  - # 5
    frequency:   13.8292012639
  - # 6
    frequency:   14.1117176977

- q-position: [    0.5841837,    0.1683673,    0.5841837 ]
  distance:    0.2284961
  band:
  - # 1
    frequency:    4.1590530121
  - # 2
    frequency:    5.4418051877
  - # 3
    frequency:   11.4050613376
  - # 4
    frequency:   11.5134421029
  - # 5
    frequency:   13.8306338140
  - # 6
    frequency:   14.1250509289

- q-position: [    0.5867347,    0.1734694,    0.5867347 ]
  distance:    0.2298277
  band:
  - # 1
    frequency:    4.1630224360
  - # 2
    frequency:    5.4919246718
  - # 3
    frequency:   11.3785783613
  - # 4
    frequency:   11.4760552729
  - # 5
    frequency:   13.8321565433
  - # 6
    frequency:   14.1383686011

- q-position: [    0.5892857,    0.1785714,    0.5892857 ]
  distance:    0.2311593
  band:
  - # 1
    frequency:    4.1670691124
  - # 2
    frequency:    5.5410632645
  - # 3
    frequency:   11.3532075819
  - # 4
    frequency:   11.4381109622
  - # 5
    frequency:   13.8337717187
  - # 6
    frequency:   14.1516561378

- q-position: [    0.5918367,    0.1836735,    0.5918367 ]
  distance:    0.2324910
  band:
  - # 1
    frequency:    4.1711839069
  - # 2
    frequency:    5.5891534160
  - # 3
    frequency:   11.3290075864
  - # 4
    frequency:   11.3996304983
  - # 5
    frequency:   13.8354817486
  - # 6
    frequency:   14.1648995443

- q-position: [    0.5943878,    0.1887755,    0.5943878 ]
  distance:    0.2338226
  band:
  - # 1
    frequency:    4.1753553472
  - # 2
    frequency:    5.6361304974
  - # 3
    frequency:   11.3060345633
  - # 4
    frequency:   11.3606341380
  - # 5
    frequency:   13.8372891841
  - # 6
    frequency:   14.1780853582

- q-position: [    0.5969388,    0.1938776,    0.5969388 ]
  distance:    0.2351542
  band:
  - # 1
    frequency:    4.1795696967
  - # 2
    frequency:    5.6819322571
  - # 3
    frequency:   11.2843427339
  - # 4
    frequency:   11.3211410902
  - # 5
    frequency:   13.8391967129
  - # 6
    frequency:   14.1912006099

- q-position: [    0.5994898,    0.1989796,    0.5994898 ]