1728 
1    

1    
  0.0100000000000000  -0.0000000000000443   0.0000000000000406
  -0.1338733592    0.0000000037    0.0000000022
  -0.0042217317   -0.0010142687   -0.0010142657
  -0.0010246654   -0.0002375323   -0.0002375248
  -0.0003021430   -0.0000577908   -0.0000577727
  -0.0000913262   -0.0000175887   -0.0000175693
  -0.0000330237   -0.0000059366   -0.0000059370
  -0.0000364243   -0.0000000335    0.0000000116
  -0.0000330320    0.0000059391    0.0000059414
  -0.0000913405    0.0000175954    0.0000175692
  -0.0003021728    0.0000578227    0.0000577889
  -0.0010246757    0.0002375308    0.0002375255
  -0.0042217310    0.0010142756    0.0010142798
   0.0016917945    0.0010644335    0.0015850905
   0.0001488427   -0.0002593497    0.0001125909
   0.0000250072   -0.0000616016    0.0000460410
   0.0000029098   -0.0000180344    0.0000127359
  -0.0000008347   -0.0000076961    0.0000016713
  -0.0000023919   -0.0000052779   -0.0000009506
  -0.0000024143    0.0000009003    0.0000052284
  -0.0000008307   -0.0000016457    0.0000076686
   0.0000028901   -0.0000127221    0.0000180219
   0.0000249990   -0.0000460235    0.0000616025
   0.0001488353   -0.0001125766    0.0002593466
   0.0016917864   -0.0015850757   -0.0010644315
  -0.0000072825    0.0002316043    0.0001082229
   0.0000022481   -0.0000856112    0.0000004085
  -0.0000024476   -0.0000223659    0.0000034797
  -0.0000022157   -0.0000084167   -0.0000002079
  -0.0000035225   -0.0000063462   -0.0000026246
  -0.0000027410   -0.0000011201    0.0000010933
  -0.0000035163    0.0000025753    0.0000062729
  -0.0000022288    0.0000002220    0.0000084314
  -0.0000024544   -0.0000034549    0.0000223759
   0.0000022587   -0.0000003809    0.0000856142
  -0.0000072886   -0.0001081803   -0.0002316007
  -0.0000241610   -0.0001120020    0.0001120173
  -0.0000043485    0.0000579035    0.0000345351
  -0.0000021406   -0.0000259094   -0.0000021941
  -0.0000010813   -0.0000079479    0.0000006466
  -0.0000021662   -0.0000063551   -0.0000019698
  -0.0000006033   -0.0000032078    0.0000004485
  -0.0000005770   -0.0000004720    0.0000031295
  -0.0000021684    0.0000018832    0.0000063346
  -0.0000010667   -0.0000005966    0.0000079360
  -0.0000021301    0.0000021576    0.0000259031
  -0.0000043411   -0.0000345150   -0.0000578931
  -0.0000086334    0.0000003542    0.0000434776
  -0.0000086044   -0.0000434590   -0.0000003102
   0.0000012854    0.0000170649    0.0000126219
  -0.0000013304   -0.0000079461   -0.0000009040
  -0.0000011795   -0.0000054497   -0.0000007534
  -0.0000001856   -0.0000028632    0.0000007623
   0.0000006296   -0.0000016328    0.0000016335
  -0.0000001937   -0.0000008055    0.0000028312
  -0.0000011798    0.0000007017    0.0000054728
  -0.0000013083    0.0000009170    0.0000079478
   0.0000012542   -0.0000125936   -0.0000170636
  -0.0000038945    0.0000017517    0.0000131618
  -0.0000004115   -0.0000044766    0.0000044912
  -0.0000038625   -0.0000131460   -0.0000017023
   0.0000004917    0.0000041253    0.0000046446
  -0.0000020710   -0.0000043881   -0.0000003221
  -0.0000004662   -0.0000010874    0.0000007232
  -0.0000001643   -0.0000005200    0.0000008958
  -0.0000001894   -0.0000009025    0.0000005120
  -0.0000004985   -0.0000007738    0.0000010723
  -0.0000020830    0.0000002773    0.0000044132
   0.0000005029   -0.0000046490   -0.0000041224
  -0.0000018831    0.0000006229    0.0000044208
   0.0000002213   -0.0000019985    0.0000024206
   0.0000001878   -0.0000024157    0.0000020203
  -0.0000018814   -0.0000044174   -0.0000005699
   0.0000002195    0.0000000048   -0.0000000154
  -0.0000028105    0.0000014254    0.0000012783
  -0.0000012672    0.0000007806    0.0000010049
  -0.0000017783   -0.0000000066    0.0000000119
  -0.0000012952   -0.0000010399   -0.0000007788
  -0.0000027681   -0.0000013491   -0.0000014322
   0.0000001835   -0.0000000412   -0.0000000069
  -0.0000028137    0.0000013188    0.0000014331
  -0.0000012520    0.0000010353    0.0000007895
  -0.0000017277    0.0000000117   -0.0000000113
  -0.0000012470   -0.0000007785   -0.0000010061
  -0.0000027616   -0.0000014294   -0.0000013005
   0.0000009849   -0.0000039396    0.0000053324
  -0.0000022545    0.0000003455    0.0000025328
  -0.0000014163   -0.0000019364    0.0000030759
  -0.0000013947   -0.0000030974    0.0000019540
  -0.0000022169   -0.0000025733   -0.0000003508
   0.0000009917   -0.0000053663    0.0000039386
  -0.0000015753   -0.0000003163    0.0000050749
  -0.0000013221    0.0000008492    0.0000025296
  -0.0000028610   -0.0000003963    0.0000018647
  -0.0000028615   -0.0000018295    0.0000004028
  -0.0000012950   -0.0000025182   -0.0000007920
  -0.0000015092   -0.0000050437    0.0000002319
   0.0000021339   -0.0000164953    0.0000134614
  -0.0000034850   -0.0000020642    0.0000080870
  -0.0000003628   -0.0000092648    0.0000092546
  -0.0000034910   -0.0000081267    0.0000020607
   0.0000021027   -0.0000134954    0.0000164935
   0.0000002103   -0.0000025556    0.0000069857
  -0.0000006659   -0.0000006885    0.0000059648
  -0.0000025012   -0.0000005749    0.0000032391
  -0.0000035932   -0.0000016383    0.0000016675
  -0.0000025016   -0.0000032190    0.0000006241
  -0.0000007007   -0.0000059025    0.0000006202
   0.0000002067   -0.0000069854    0.0000025434
  -0.0000031909   -0.0000566592    0.0000354250
  -0.0000056168   -0.0000081750    0.0000252563
  -0.0000056042   -0.0000252574    0.0000081623
  -0.0000031816   -0.0000354525    0.0000566631
  -0.0000000564   -0.0000088140    0.0000189649
   0.0000004505   -0.0000041772    0.0000089304
  -0.0000021069   -0.0000019771    0.0000062680
  -0.0000029649   -0.0000022460    0.0000032861
  -0.0000029502   -0.0000032160    0.0000023007
  -0.0000021201   -0.0000062618    0.0000019621
   0.0000004327   -0.0000089059    0.0000041652
  -0.0000000250   -0.0000189553    0.0000088286
  -0.0000068627   -0.0002279662    0.0001086551
  -0.0000163013   -0.0000390306    0.0000390327
  -0.0000068699   -0.0001086761    0.0002279690
   0.0000040314   -0.0000258811    0.0000645106
  -0.0000011605   -0.0000097447    0.0000236990
  -0.0000014947   -0.0000041686    0.0000088114
  -0.0000039722   -0.0000026331    0.0000056572
  -0.0000039994   -0.0000029427    0.0000029774
  -0.0000039712   -0.0000057010    0.0000025563
  -0.0000014868   -0.0000087957    0.0000041718
  -0.0000011472   -0.0000237074    0.0000097065
   0.0000040300   -0.0000645064    0.0000258437
   0.0016728465   -0.0010612492    0.0015762612
   0.0016728425   -0.0015762659    0.0010612499
   0.0001532162   -0.0000418537    0.0002645938
   0.0000255010   -0.0000079486    0.0000862091
   0.0000031570   -0.0000022607    0.0000268467
  -0.0000007397   -0.0000021601    0.0000076815
  -0.0000029777   -0.0000008725    0.0000045942
  -0.0000029584   -0.0000045936    0.0000008962
  -0.0000007482   -0.0000076837    0.0000021300
   0.0000031366   -0.0000268045    0.0000022503
   0.0000254901   -0.0000861921    0.0000079348
   0.0001532329   -0.0002645977    0.0000418607
   0.0016918030    0.0015850889    0.0010644368
   0.0001488246    0.0001125733   -0.0002593461
   0.0000250124    0.0000460353   -0.0000615848
   0.0000029059    0.0000127195   -0.0000180157
  -0.0000008280    0.0000016585   -0.0000076634
  -0.0000024018   -0.0000009445   -0.0000052212
  -0.0000024017    0.0000052111    0.0000009136
  -0.0000008382    0.0000076842   -0.0000016565
   0.0000029010    0.0000180615   -0.0000127283
   0.0000249985    0.0000616167   -0.0000460591
   0.0001488238    0.0002593595   -0.0001125812
   0.0016918019   -0.0010644310   -0.0015850850
  -0.0000203432    0.0000385029    0.0000385137
   0.0000241705   -0.0000003420   -0.0000003381
   0.0000034214   -0.0000035085   -0.0000035030
  -0.0000009959   -0.0000022878   -0.0000022719
  -0.0000033311   -0.0000033823   -0.0000033644
  -0.0000034067   -0.0000000375    0.0000000172
  -0.0000033462    0.0000034215    0.0000033939
  -0.0000010114    0.0000022974    0.0000022982
   0.0000034339    0.0000035301    0.0000034818
   0.0000241429    0.0000003593    0.0000003393
  -0.0000203337   -0.0000385054   -0.0000385032
   0.0000237471    0.0000000007    0.0000000004
  -0.0000076564    0.0000077885    0.0000246052
   0.0000017971   -0.0000039637   -0.0000019877
  -0.0000001723   -0.0000021286   -0.0000007942
  -0.0000025636   -0.0000035166   -0.0000025483
  -0.0000017345   -0.0000016124   -0.0000008087
  -0.0000017482    0.0000007169    0.0000015723
  -0.0000025645    0.0000025409    0.0000035017
  -0.0000001806    0.0000008103    0.0000021058
   0.0000017860    0.0000020215    0.0000039721
  -0.0000076754   -0.0000245717   -0.0000077919
   0.0000025784    0.0000078883    0.0000172578
   0.0000025724   -0.0000172491   -0.0000078782
  -0.0000043228    0.0000021801    0.0000074576
   0.0000002366   -0.0000015618    0.0000002687
  -0.0000024333   -0.0000029134   -0.0000011040
  -0.0000014122   -0.0000021041    0.0000000098
  -0.0000009138   -0.0000010791    0.0000010258
  -0.0000014734   -0.0000000679    0.0000020600
  -0.0000024625    0.0000011279    0.0000028791
   0.0000001699   -0.0000002299    0.0000015698
  -0.0000042719   -0.0000074425   -0.0000021810
  -0.0000014000    0.0000009957    0.0000044246
  -0.0000002492   -0.0000017685    0.0000017664
  -0.0000014046   -0.0000044200   -0.0000009725
  -0.0000025680    0.0000003034    0.0000016214
  -0.0000015379   -0.0000016054   -0.0000000185
  -0.0000017290   -0.0000010750    0.0000009918
  -0.0000009253   -0.0000012510    0.0000011306
  -0.0000008923   -0.0000011855    0.0000011700
  -0.0000017092   -0.0000010773    0.0000010489
  -0.0000014779    0.0000000316    0.0000015873
  -0.0000026209   -0.0000016040   -0.0000003134
   0.0000000257   -0.0000007689    0.0000012214
  -0.0000004255   -0.0000014237    0.0000008871
  -0.0000003533   -0.0000008678    0.0000014466
   0.0000000357   -0.0000012275    0.0000007921
  -0.0000028627   -0.0000006508    0.0000004723
  -0.0000014040    0.0000005428    0.0000010114
  -0.0000019122    0.0000006416    0.0000014047
  -0.0000016290   -0.0000004702    0.0000004184
  -0.0000019442   -0.0000014596   -0.0000006618
  -0.0000013645   -0.0000010423   -0.0000005393
  -0.0000028127   -0.0000004668    0.0000006472
  -0.0000002807    0.0000005389    0.0000013606
  -0.0000008634   -0.0000003853    0.0000010604
  -0.0000008518   -0.0000010767    0.0000010911
  -0.0000008769   -0.0000010430    0.0000004037
  -0.0000002280   -0.0000013722   -0.0000005069
  -0.0000015392    0.0000050596   -0.0000002765
  -0.0000013483    0.0000025498    0.0000008045
  -0.0000028384    0.0000018495   -0.0000004043
  -0.0000028467    0.0000003869   -0.0000018612
  -0.0000013460   -0.0000008160   -0.0000025358
  -0.0000015492    0.0000002388   -0.0000050474
   0.0000009746    0.0000053811   -0.0000039325
  -0.0000023019    0.0000025692    0.0000003577
  -0.0000013630    0.0000031231   -0.0000019467
  -0.0000013780    0.0000019416   -0.0000030870
  -0.0000022540   -0.0000003495   -0.0000025402
   0.0000009938    0.0000039365   -0.0000053455
  -0.0000005101    0.0000083633   -0.0000001651
   0.0000003601    0.0000018833    0.0000009972
  -0.0000010153    0.0000008784   -0.0000008617
   0.0000003962   -0.0000010330   -0.0000019010
  -0.0000005018    0.0000001154   -0.0000083662
   0.0000031060   -0.0000000571   -0.0000000023
  -0.0000005108   -0.0000001797    0.0000083644
   0.0000003607    0.0000010116    0.0000018899
  -0.0000009518   -0.0000008803    0.0000008705
   0.0000003539   -0.0000018914   -0.0000009912
  -0.0000005466   -0.0000083611    0.0000001740
   0.0000031237    0.0000000077   -0.0000000009
  -0.0000012397    0.0000258231   -0.0000011764
   0.0000026936    0.0000034030   -0.0000011194
   0.0000026729    0.0000011130   -0.0000034424
  -0.0000012383    0.0000012082   -0.0000258216
   0.0000067266   -0.0000016900   -0.0000009897
   0.0000043404    0.0000000173    0.0000014155
  -0.0000005774    0.0000012409    0.0000078390
  -0.0000002070   -0.0000003231    0.0000018871
  -0.0000002339   -0.0000018421    0.0000003767
  -0.0000005868   -0.0000078499   -0.0000011912
   0.0000043553   -0.0000014183   -0.0000000613
   0.0000067112    0.0000009854    0.0000016807
   0.0000033239    0.0000850077    0.0000021905
   0.0000257321   -0.0000011932    0.0000011771
   0.0000033291   -0.0000022155   -0.0000850168
   0.0000146791    0.0000005229   -0.0000035388
   0.0000081041   -0.0000010159    0.0000012318
   0.0000045953   -0.0000008768    0.0000023506
  -0.0000022328    0.0000002170    0.0000077575
  -0.0000012094   -0.0000017282    0.0000017628
  -0.0000022093   -0.0000077491   -0.0000001826
   0.0000045952   -0.0000022971    0.0000008288
   0.0000081043   -0.0000012205    0.0000009714
   0.0000146510    0.0000035402   -0.0000005585
   0.0001493054    0.0002582164    0.0001155029
   0.0001493035   -0.0001154952   -0.0002582165
   0.0000604240    0.0000061937   -0.0000079633
   0.0000213560    0.0000020564    0.0000041778
   0.0000081031   -0.0000004744    0.0000027918
   0.0000035967   -0.0000018758    0.0000011171
  -0.0000010782    0.0000022040    0.0000067721
  -0.0000010816   -0.0000067268   -0.0000021714
   0.0000036022   -0.0000011191    0.0000018611
   0.0000081133   -0.0000027659    0.0000004547
   0.0000213586   -0.0000041734   -0.0000020810
   0.0000604101    0.0000079823   -0.0000061815
  -0.0042101599    0.0010013306   -0.0010013316
   0.0002040127   -0.0000008182   -0.0000032618
   0.0000604781    0.0000184191    0.0000087307
   0.0000165960    0.0000041360    0.0000047623
   0.0000045685   -0.0000000712    0.0000015160
  -0.0000006766   -0.0000015056   -0.0000005247
  -0.0000330396   -0.0000052526    0.0000053141
  -0.0000006685    0.0000005463    0.0000014485
   0.0000045586   -0.0000014873    0.0000000718
   0.0000165830   -0.0000047370   -0.0000041657
   0.0000604663   -0.0000087296   -0.0000184060
   0.0002040072    0.0000032632    0.0000008264
  -0.0000072806    0.0001082170    0.0002316083
   0.0000022659    0.0000003989   -0.0000856057
  -0.0000024705    0.0000034452   -0.0000223702
  -0.0000022612   -0.0000001836   -0.0000083996
  -0.0000034959   -0.0000027087   -0.0000063143
  -0.0000027087    0.0000011523   -0.0000010844
  -0.0000034977    0.0000062707    0.0000026689
  -0.0000022692    0.0000084380    0.0000001970
  -0.0000024568    0.0000224108   -0.0000034630
   0.0000022842    0.0000856147   -0.0000003727
  -0.0000072933   -0.0002315986   -0.0001081908
  -0.0000241676    0.0001120056   -0.0001120204
  -0.0000076579    0.0000245751    0.0000077951
   0.0000018038   -0.0000020092   -0.0000039515
  -0.0000001894   -0.0000008301   -0.0000021187
  -0.0000025606   -0.0000026061   -0.0000035123
  -0.0000017190   -0.0000008396   -0.0000015449
  -0.0000017198    0.0000015245    0.0000008449
  -0.0000025865    0.0000035011    0.0000025739
  -0.0000001910    0.0000021454    0.0000007812
   0.0000017794    0.0000039872    0.0000020020
  -0.0000076539   -0.0000077832   -0.0000245747
   0.0000025703    0.0000172703    0.0000078866
   0.0000025595   -0.0000078893   -0.0000172581
  -0.0000010199    0.0000089810    0.0000089856
  -0.0000007179   -0.0000010580   -0.0000010178
  -0.0000031964   -0.0000018879   -0.0000019123
  -0.0000022694   -0.0000009945   -0.0000010150
  -0.0000020853   -0.0000000579    0.0000000388
  -0.0000022932    0.0000010436    0.0000010072
  -0.0000031934    0.0000019551    0.0000019290
  -0.0000007119    0.0000010771    0.0000009953
  -0.0000010495   -0.0000089952   -0.0000089922
  -0.0000005731    0.0000022686    0.0000022539
   0.0000011878    0.0000000012    0.0000000017
  -0.0000005589   -0.0000022687   -0.0000022624
  -0.0000014311    0.0000023987    0.0000027822
  -0.0000026368   -0.0000014924   -0.0000010109
  -0.0000023111   -0.0000007564    0.0000004766
  -0.0000018988   -0.0000009719    0.0000005427
  -0.0000019374   -0.0000005702    0.0000009316
  -0.0000023488   -0.0000004457    0.0000007559
  -0.0000026802    0.0000010445    0.0000014914
  -0.0000014369   -0.0000027698   -0.0000024225
  -0.0000007582    0.0000004533    0.0000002871
  -0.0000014529    0.0000005496   -0.0000002968
  -0.0000014678    0.0000002960   -0.0000005407
  -0.0000007746   -0.0000002893   -0.0000004338
  -0.0000013814    0.0000001775    0.0000001356
  -0.0000019700    0.0000000582    0.0000006369
  -0.0000022436   -0.0000000359    0.0000013701
  -0.0000020979   -0.0000009175    0.0000008550
  -0.0000022303   -0.0000014110   -0.0000000223
  -0.0000019327   -0.0000006021   -0.0000000822
  -0.0000013915   -0.0000001192   -0.0000001750
  -0.0000009105    0.0000009952    0.0000005518
  -0.0000002660    0.0000001519   -0.0000002093
  -0.0000005560    0.0000000299   -0.0000000223
  -0.0000002956    0.0000002065   -0.0000001442
  -0.0000009858   -0.0000005461   -0.0000009700
  -0.0000002828    0.0000019949    0.0000000515
  -0.0000016523    0.0000017841    0.0000010170
  -0.0000024998    0.0000007113    0.0000008698
  -0.0000025192   -0.0000009260   -0.0000007477
  -0.0000016510   -0.0000010691   -0.0000018278
  -0.0000002889   -0.0000000369   -0.0000019925
  -0.0000016694    0.0000002997    0.0000038811
   0.0000004572    0.0000015447    0.0000013192
  -0.0000003206   -0.0000001412    0.0000004284
  -0.0000003102   -0.0000004217    0.0000001638
   0.0000004115   -0.0000013341   -0.0000015230
  -0.0000016459   -0.0000038878   -0.0000002934
  -0.0000007135    0.0000059622   -0.0000006334
  -0.0000025741    0.0000032274   -0.0000006012
  -0.0000035427    0.0000016298   -0.0000016979
  -0.0000025175    0.0000005534   -0.0000032331
  -0.0000007056    0.0000005527   -0.0000059362
   0.0000002388    0.0000025152   -0.0000069875
   0.0000021096    0.0000134430   -0.0000164901
  -0.0000034931    0.0000081188   -0.0000020691
  -0.0000003953    0.0000092905   -0.0000092617
  -0.0000034599    0.0000020633   -0.0000080718
   0.0000021275    0.0000164939   -0.0000134555
   0.0000002259    0.0000069849   -0.0000025557
  -0.0000005833    0.0000078503    0.0000011993
  -0.0000002365    0.0000018498   -0.0000003686
  -0.0000002272    0.0000003508   -0.0000018661
  -0.0000005752   -0.0000012186   -0.0000078539
   0.0000043412   -0.0000000993   -0.0000014138
   0.0000067273    0.0000017305    0.0000009971
  -0.0000012519   -0.0000011422    0.0000258366
   0.0000026677   -0.0000011015    0.0000034217
   0.0000026465   -0.0000034002    0.0000011141
  -0.0000012249   -0.0000258319    0.0000012118
   0.0000067448   -0.0000010033   -0.0000016687
   0.0000043470    0.0000014110    0.0000000041
  -0.0000020307    0.0000215852    0.0000044129
   0.0000039783    0.0000023519   -0.0000023638
  -0.0000020190   -0.0000044476   -0.0000215765
   0.0000080063   -0.0000019406   -0.0000016218
   0.0000071910   -0.0000000573    0.0000000029
   0.0000080013    0.0000019422    0.0000016207
  -0.0000020334    0.0000044524    0.0000216034
   0.0000039608   -0.0000023552    0.0000023637
  -0.0000020366   -0.0000215688   -0.0000044120
   0.0000080234   -0.0000016162   -0.0000019107
   0.0000072066    0.0000000112    0.0000000025
   0.0000079979    0.0000016163    0.0000018972
   0.0000253694    0.0000601963    0.0000479386
   0.0000253915   -0.0000479463   -0.0000602096
   0.0000214022   -0.0000024474   -0.0000021292
   0.0000117593   -0.0000003569   -0.0000002967
   0.0000090161   -0.0000004764    0.0000001200
   0.0000081360    0.0000005939   -0.0000003830
   0.0000031117    0.0000137291    0.0000168890
   0.0000031172   -0.0000168654   -0.0000136841
   0.0000081301    0.0000004024   -0.0000005442
   0.0000090291   -0.0000001006    0.0000004130
   0.0000117545    0.0000003033    0.0000003435
   0.0000214061    0.0000021238    0.0000024065
  -0.0010221112    0.0002360026   -0.0002360208
   0.0000602789   -0.0000206700    0.0000097240
   0.0000313891   -0.0000008816    0.0000004254
   0.0000132802   -0.0000005186    0.0000010611
   0.0000082265   -0.0000012709   -0.0000003466
   0.0000045637    0.0000005311   -0.0000026069
  -0.0000913248   -0.0000165627    0.0000165942
   0.0000045629    0.0000026382   -0.0000004670
   0.0000082377    0.0000003717    0.0000012542
   0.0000132699   -0.0000010563    0.0000005003
   0.0000313962   -0.0000004228    0.0000008773
   0.0000602696   -0.0000097325    0.0000206716
   0.0001509584    0.0000384826    0.0002639197
   0.0000593417   -0.0000082701   -0.0000078152
   0.0000207998    0.0000008456   -0.0000029239
   0.0000078804    0.0000000230   -0.0000003702
   0.0000035868   -0.0000018201   -0.0000021023
  -0.0000004808   -0.0000016853   -0.0000085716
  -0.0000004776    0.0000085779    0.0000017163
   0.0000035833    0.0000021093    0.0000018294
   0.0000078820    0.0000004038   -0.0000000428
   0.0000207960    0.0000029358   -0.0000008523
   0.0000593458    0.0000078335    0.0000082633
   0.0001509729   -0.0002639104   -0.0000384855
  -0.0000043267    0.0000345380    0.0000578967
  -0.0000021378   -0.0000022027   -0.0000259155
  -0.0000011033    0.0000005638   -0.0000079195
  -0.0000021778   -0.0000020094   -0.0000063770
  -0.0000005727    0.0000004519   -0.0000031500
  -0.0000005742    0.0000031624   -0.0000004413
  -0.0000021549    0.0000063570    0.0000019723
  -0.0000011120    0.0000079469   -0.0000006163
  -0.0000021205    0.0000259185    0.0000021729
  -0.0000043381   -0.0000578769   -0.0000345443
  -0.0000085996    0.0000434684    0.0000003403
  -0.0000085926   -0.0000003268   -0.0000434740
  -0.0000043473    0.0000074598    0.0000021854
   0.0000001944    0.0000002607   -0.0000015592
  -0.0000024576   -0.0000010957   -0.0000028798
  -0.0000014184    0.0000000271   -0.0000020949
  -0.0000008683    0.0000011069   -0.0000010500
  -0.0000014435    0.0000020984   -0.0000000410
  -0.0000024258    0.0000029303    0.0000011010
   0.0000001834    0.0000015818   -0.0000002737
  -0.0000043360   -0.0000021831   -0.0000074768
  -0.0000014285    0.0000044217    0.0000009763
  -0.0000002106    0.0000017681   -0.0000017704
  -0.0000013965   -0.0000009753   -0.0000044239
  -0.0000014204    0.0000027563    0.0000024261
  -0.0000025731   -0.0000010380   -0.0000014546
  -0.0000023564    0.0000004233   -0.0000007394
  -0.0000019159    0.0000004954   -0.0000008865
  -0.0000018937    0.0000008849   -0.0000004937
  -0.0000023896    0.0000007431   -0.0000004507
  -0.0000026153    0.0000015010    0.0000010223
  -0.0000014284   -0.0000024039   -0.0000027630
  -0.0000007808    0.0000002933    0.0000004531
  -0.0000014582   -0.0000002982    0.0000005449
  -0.0000014800   -0.0000005419    0.0000003023
  -0.0000007735   -0.0000004522   -0.0000002880
  -0.0000018057    0.0000001171    0.0000001605
  -0.0000015817    0.0000000546    0.0000000863
  -0.0000019759    0.0000004900    0.0000004892
  -0.0000019310   -0.0000000608    0.0000000099
  -0.0000019930   -0.0000004860   -0.0000004992
  -0.0000016378   -0.0000000734   -0.0000000772
  -0.0000017798   -0.0000001050   -0.0000001568
  -0.0000010529    0.0000009106    0.0000009073
  -0.0000006378   -0.0000000227   -0.0000000153
  -0.0000009387   -0.0000000020   -0.0000000011
  -0.0000006913    0.0000000225    0.0000000243
  -0.0000009894   -0.0000009145   -0.0000009054
  -0.0000004101    0.0000009324    0.0000003575
  -0.0000009227    0.0000011408    0.0000005499
  -0.0000018453    0.0000005791    0.0000003972
  -0.0000018193   -0.0000004879   -0.0000006064
  -0.0000009213   -0.0000005653   -0.0000011047
  -0.0000004185   -0.0000003337   -0.0000009742
   0.0000000017    0.0000022323    0.0000018540
  -0.0000001240    0.0000016710    0.0000008190
  -0.0000008491   -0.0000003881   -0.0000002064
  -0.0000008363    0.0000002101    0.0000003863
  -0.0000000931   -0.0000008219   -0.0000016568
   0.0000000095   -0.0000018709   -0.0000021952
  -0.0000002537    0.0000031945    0.0000002957
  -0.0000016569    0.0000020506   -0.0000000993
  -0.0000025525    0.0000008746   -0.0000009245
  -0.0000017042    0.0000000002   -0.0000021324
  -0.0000002778   -0.0000002896   -0.0000032099
   0.0000021942    0.0000012586   -0.0000019532
  -0.0000030788   -0.0000009554    0.0000132335
  -0.0000000649   -0.0000002953    0.0000045707
   0.0000008652   -0.0000019632    0.0000019608
  -0.0000000778   -0.0000045650    0.0000003272
  -0.0000030754   -0.0000132371    0.0000009647
   0.0000022105    0.0000019309   -0.0000012598
  -0.0000020856    0.0000062642   -0.0000019921
  -0.0000029837    0.0000032446   -0.0000022907
  -0.0000029704    0.0000022617   -0.0000032729
  -0.0000020946    0.0000019385   -0.0000063070
   0.0000004819    0.0000042218   -0.0000089212
  -0.0000000449    0.0000088570   -0.0000189502
  -0.0000031834    0.0000354491   -0.0000566589
  -0.0000056409    0.0000252579   -0.0000081685
  -0.0000056355    0.0000081690   -0.0000252554
  -0.0000031826    0.0000566422   -0.0000353988
  -0.0000000475    0.0000189463   -0.0000087879
   0.0000004889    0.0000089154   -0.0000041804
  -0.0000022379    0.0000077474    0.0000001931
  -0.0000012310    0.0000017130   -0.0000017766
  -0.0000022230   -0.0000002431   -0.0000077793
   0.0000046142    0.0000007507   -0.0000023059
   0.0000081078    0.0000009970   -0.0000012300
   0.0000146731   -0.0000005659    0.0000035427
   0.0000033343    0.0000022289    0.0000850049
   0.0000257148    0.0000011807   -0.0000011588
   0.0000033026   -0.0000850080   -0.0000022117
   0.0000146597   -0.0000035455    0.0000005719
   0.0000081201    0.0000012269   -0.0000010038
   0.0000046141    0.0000023239   -0.0000008340
   0.0000031153    0.0000169086    0.0000136846
   0.0000031163   -0.0000137193   -0.0000168980
   0.0000081417   -0.0000005811    0.0000003898
   0.0000090189    0.0000003821   -0.0000001099
   0.0000117598    0.0000003675    0.0000003063
   0.0000213906    0.0000024129    0.0000021286
   0.0000253764    0.0000479726    0.0000602195
   0.0000253859   -0.0000601903   -0.0000479174
   0.0000214020   -0.0000021293   -0.0000024054
   0.0000117637   -0.0000002933   -0.0000003203
   0.0000090227    0.0000001212   -0.0000004402
   0.0000081284   -0.0000003795    0.0000005710
  -0.0003018703    0.0000564911   -0.0000564961
   0.0000166949   -0.0000054986    0.0000058037
   0.0000132986   -0.0000002764    0.0000014936
   0.0000112756   -0.0000000528    0.0000000016
   0.0000132955    0.0000003045   -0.0000015004
   0.0000166928    0.0000055003   -0.0000057896
  -0.0003019049   -0.0000564845    0.0000565063
   0.0000166898    0.0000058164   -0.0000055092
   0.0000133007    0.0000014953   -0.0000002657
   0.0000112843   -0.0000000027   -0.0000000010
   0.0000132870   -0.0000014896    0.0000002577
   0.0000166866   -0.0000057957    0.0000054963
   0.0000249059    0.0000061253    0.0000875074
   0.0000207728   -0.0000035780    0.0000047858
   0.0000113798   -0.0000005074   -0.0000003597
   0.0000087492   -0.0000004361   -0.0000003803
   0.0000078891    0.0000001285   -0.0000034551
   0.0000030329   -0.0000012751   -0.0000279899
   0.0000030272    0.0000280120    0.0000012961
   0.0000078889    0.0000034815   -0.0000001049
   0.0000087493    0.0000004026    0.0000004378
   0.0000113819    0.0000003642    0.0000004588
   0.0000207781   -0.0000047870    0.0000035477
   0.0000248901   -0.0000875114   -0.0000061689
   0.0000020482    0.0000242623    0.0000646197
   0.0000135183   -0.0000018058   -0.0000035796
   0.0000073308    0.0000012369   -0.0000019673
   0.0000041136   -0.0000008181   -0.0000027590
  -0.0000015000   -0.0000037642   -0.0000094494
   0.0000001063    0.0000021121   -0.0000020765
  -0.0000014858    0.0000094780    0.0000038041
   0.0000041233    0.0000028171    0.0000007853
   0.0000073320    0.0000019842   -0.0000012651
   0.0000135096    0.0000035770    0.0000017959
   0.0000020650   -0.0000646168   -0.0000242568
   0.0000213308   -0.0000029179    0.0000029058
   0.0000012697    0.0000126197    0.0000170618
  -0.0000013206   -0.0000008942   -0.0000079504
  -0.0000011441   -0.0000007493   -0.0000054180
  -0.0000001484    0.0000008291   -0.0000028442
   0.0000005784    0.0000017024   -0.0000016120
  -0.0000001756    0.0000028893   -0.0000007756
  -0.0000012052    0.0000054710    0.0000007739
  -0.0000013093    0.0000079544    0.0000009249
   0.0000013132   -0.0000170588   -0.0000126276
  -0.0000038816    0.0000131532    0.0000016919
  -0.0000004277    0.0000044640   -0.0000044929
  -0.0000038783   -0.0000017339   -0.0000131499
  -0.0000025741    0.0000016050    0.0000003069
  -0.0000015267   -0.0000000489   -0.0000015907
  -0.0000017013    0.0000009942   -0.0000010942
  -0.0000009250    0.0000011656   -0.0000011569
  -0.0000009230    0.0000012375   -0.0000011016
  -0.0000016553    0.0000010937   -0.0000009995
  -0.0000015186    0.0000016002    0.0000000153
  -0.0000025847   -0.0000003032   -0.0000015941
  -0.0000000021    0.0000012291   -0.0000007719
  -0.0000003967    0.0000008755   -0.0000014293
  -0.0000003840    0.0000014231   -0.0000008829
  -0.0000000094    0.0000007831   -0.0000012107
  -0.0000013495    0.0000000876    0.0000001859
  -0.0000019292    0.0000006095    0.0000000819
  -0.0000022963    0.0000012980    0.0000000077
  -0.0000020421    0.0000009078   -0.0000008535
  -0.0000022445   -0.0000000427   -0.0000013426
  -0.0000018719   -0.0000000436   -0.0000006196
  -0.0000013686   -0.0000001752   -0.0000001266
  -0.0000010120    0.0000005432    0.0000009613
  -0.0000003321   -0.0000002094    0.0000001515
  -0.0000004884   -0.0000000395    0.0000000301
  -0.0000002491   -0.0000001524    0.0000002067
  -0.0000009845   -0.0000009874   -0.0000005510
  -0.0000003553    0.0000003456    0.0000009807
  -0.0000009395    0.0000005482    0.0000011002
  -0.0000018277    0.0000004279    0.0000006215
  -0.0000017888   -0.0000006258   -0.0000004012
  -0.0000009627   -0.0000010991   -0.0000005624
  -0.0000003923   -0.0000009351   -0.0000003618
  -0.0000000258    0.0000018712    0.0000021999
  -0.0000001029    0.0000008269    0.0000016377
  -0.0000008133   -0.0000002073   -0.0000003962
  -0.0000008327    0.0000003832    0.0000002134
  -0.0000001371   -0.0000016432   -0.0000008280