   2 1728
1 1
    13.387335917238392     0.000000000000000    -0.000000000000000
    -0.000000000000000    13.387335917238392    -0.000000000000002
    -0.000000000000000    -0.000000000000054    13.387335917238392
1 2
     0.421594430607999     0.100780295706362     0.100780295711255
    -0.106284121521517    -0.168231915326750    -0.158067413476620
    -0.106284121523887    -0.158067413472722    -0.168231915328507
1 3
     0.102338949675706     0.023677222873088     0.023677222874147
    -0.022978630414650     0.000708044658886    -0.010843299272785
    -0.022978630415141    -0.010843299272527     0.000708044658490
1 4
     0.030202275443134     0.005714413833971     0.005714413834264
    -0.005727420158943     0.000376163340491    -0.003498224368462
    -0.005727420159096    -0.003498224368377     0.000376163340394
1 5
     0.009132932490341     0.001708344667353     0.001708344667441
    -0.001677774653538    -0.000169953665622    -0.001303975022179
    -0.001677774653585    -0.001303975022147    -0.000169953665651
1 6
     0.003303532830868     0.000560465666046     0.000560465666077
    -0.000403040897800    -0.000073012534450    -0.000499786479856
    -0.000403040897820    -0.000499786479845    -0.000073012534458
1 7
     0.003642433973471    -0.000000000000016     0.000000000000015
     0.000000000000016    -0.000020150974594     0.000000000000000
    -0.000000000000015     0.000000000000000    -0.000020150974594
1 8
     0.003303532830868    -0.000560465666072    -0.000560465666054
     0.000403040897826    -0.000073012534459    -0.000499786479858
     0.000403040897797    -0.000499786479844    -0.000073012534450
1 9
     0.009132932490343    -0.001708344667425    -0.001708344667377
     0.001677774653609    -0.000169953665652    -0.001303975022180
     0.001677774653521    -0.001303975022148    -0.000169953665623
1 10
     0.030202275443142    -0.005714413834207    -0.005714413834053
     0.005727420159178     0.000376163340390    -0.003498224368466
     0.005727420158885    -0.003498224368381     0.000376163340487
1 11
     0.102338949675740    -0.023677222873900    -0.023677222873417
     0.022978630415462     0.000708044658472    -0.010843299272808
     0.022978630414412    -0.010843299272538     0.000708044658869
1 12
     0.421594430608151    -0.100780295710303    -0.100780295707865
     0.106284121525458    -0.168231915328584    -0.158067413476650
     0.106284121520498    -0.158067413472845    -0.168231915326825
1 13
    -0.168231915326750    -0.106284118557514    -0.158067411272865
     0.100780298515853     0.421594430607311     0.100780297114471
    -0.158067415675791    -0.106284120040015    -0.168231915327820
1 14
    -0.014906536259943     0.025878389157977    -0.011404101786819
     0.025878389879397    -0.014906536259918    -0.011404101945646
    -0.003876842068067    -0.003876842014167     0.001831919684080
1 15
    -0.002519253562373     0.006090268069757    -0.004699172523621
     0.008531039435289    -0.000279334078571    -0.000130094264180
    -0.000797917915800    -0.002491920906005     0.000664261268994
1 16
    -0.000300842380607     0.001746182247742    -0.001321536986774
     0.002586996992390     0.000168547959362     0.000168322473161
    -0.000212336417936    -0.000778010294986     0.000390088197063
1 17
     0.000095673084868     0.000721039918566    -0.000192679042790
     0.000815670803498     0.000091724283522     0.000053428934311
     0.000002209098373    -0.000207998991077     0.000242187675038
1 18
     0.000268695449195     0.000490380602284     0.000089489277686
     0.000472659069974     0.000181832266123     0.000029364509285
     0.000103864020679    -0.000088666387768     0.000281840263434
1 19
     0.000268695449195    -0.000089489277685    -0.000490380602290
    -0.000103864020680     0.000281840263434    -0.000088666387770
    -0.000472659069969     0.000029364509285     0.000181832266123
1 20
     0.000095673084868     0.000192679042788    -0.000721039918574
    -0.000002209098373     0.000242187675039    -0.000207998991083
    -0.000815670803488     0.000053428934310     0.000091724283522
1 21
    -0.000300842380608     0.001321536986758    -0.001746182247763
     0.000212336417938     0.000390088197063    -0.000778010295005
    -0.002586996992359     0.000168322473158     0.000168547959362
1 22
    -0.002519253562376     0.004699172523564    -0.006090268069832
     0.000797917915810     0.000664261268996    -0.002491920906068
    -0.008531039435186    -0.000130094264172    -0.000279334078570
1 23
    -0.014906536259945     0.011404101786682    -0.025878389158294
     0.003876842068110     0.001831919684083    -0.003876842014273
    -0.025878389879078    -0.011404101945355    -0.014906536259918
1 24
    -0.168231915326826     0.158067411270977     0.106284118558987
     0.158067415677755    -0.168231915327820    -0.106284120042621
    -0.100780298514881     0.100780297112112     0.421594430607388
1 25
     0.000708044658886    -0.022978629773910    -0.010843299121557
     0.023677223533234     0.102338949675551     0.023677223203940
    -0.010843299423600    -0.022978630094414     0.000708044658645
1 26
    -0.000279334078563     0.008531039197453    -0.000130094262398
     0.006090268239526    -0.002519253562360    -0.004699172589095
    -0.002491920940718    -0.000797917904716     0.000664261268973
1 27
     0.000224363317213     0.002198208941444    -0.000394595145566
     0.002198209002724     0.000224363317211    -0.000394595151059
    -0.000912820228752    -0.000912820216034     0.000070685555532
1 28
     0.000223473029698     0.000808988662949    -0.000000315186813
     0.000789291798810     0.000083573906202    -0.000090916072747
    -0.000217872848123    -0.000293185069036     0.000140858531579
1 29
     0.000373903785884     0.000598922235638     0.000261127846882
     0.000569715558819     0.000093680900141     0.000068414131175
     0.000030173869883    -0.000056941476501     0.000131906853684
1 30
     0.000310406910833     0.000091286142045    -0.000091286142046
     0.000153416639881     0.000039290391087    -0.000039343607696
    -0.000153416639879    -0.000039343607695     0.000039290391087
1 31
     0.000373903785885    -0.000261127846879    -0.000598922235646
    -0.000030173869884     0.000131906853684    -0.000056941476503
    -0.000569715558812     0.000068414131174     0.000093680900141
1 32
     0.000223473029698     0.000000315186813    -0.000808988662959
     0.000217872848126     0.000140858531579    -0.000293185069043
    -0.000789291798801    -0.000090916072745     0.000083573906202
1 33
     0.000224363317213     0.000394595145561    -0.002198208941471
     0.000912820228763     0.000070685555532    -0.000912820216057
    -0.002198209002697    -0.000394595151049     0.000224363317211
1 34
    -0.000279334078561     0.000130094262395    -0.008531039197558
     0.002491920940748     0.000664261268973    -0.000797917904740
    -0.006090268239449    -0.004699172588978    -0.002519253562361
1 35
     0.000708044658869     0.010843299121434     0.022978629774219
     0.010843299423740     0.000708044658645    -0.022978630094968
    -0.023677223532992     0.023677223203376     0.102338949675568
1 36
     0.002287084206138     0.011299353261246    -0.011299353261400
     0.004016813014809    -0.015209168681947    -0.026425432493929
    -0.004016813014744    -0.026425432493279    -0.015209168681950
1 37
     0.000376163340491    -0.005727419999236    -0.003498224319679
     0.005714413993292     0.030202275443096     0.005714413913841
    -0.003498224417122    -0.005727420079140     0.000376163340432
1 38
     0.000168547959365     0.002586996920266     0.000168322470805
     0.001746182296417    -0.000300842380603    -0.001321537005188
    -0.000778010305824    -0.000212336414987     0.000390088197056
1 39
     0.000083573906203     0.000789291776807    -0.000090916071483
     0.000808988685502     0.000223473029697    -0.000000315186815
    -0.000293185073120    -0.000217872845089     0.000140858531579
1 40
     0.000213431772990     0.000631557840490     0.000196306149689
     0.000631557858098     0.000213431772989     0.000196306152427
    -0.000007262724086    -0.000007262723987     0.000177289091020
1 41
     0.000081656058342     0.000302954041538    -0.000028197239397
     0.000302856272537     0.000021695036093    -0.000054095752695
    -0.000073844645204    -0.000062486456005     0.000027462947848
1 42
     0.000081656058342     0.000028197239396    -0.000302954041542
     0.000073844645205     0.000027462947848    -0.000062486456006
    -0.000302856272533    -0.000054095752693     0.000021695036093
1 43
     0.000213431772990    -0.000196306149686    -0.000631557840498
     0.000007262724087     0.000177289091020    -0.000007262723988
    -0.000631557858090     0.000196306152422     0.000213431772989
1 44
     0.000083573906203     0.000090916071482    -0.000789291776816
     0.000293185073123     0.000140858531579    -0.000217872845094
    -0.000808988685493    -0.000000315186815     0.000223473029697
1 45
     0.000168547959366    -0.000168322470803    -0.002586996920298
     0.000778010305834     0.000390088197056    -0.000212336414993
    -0.001746182296395    -0.001321537005155    -0.000300842380604
1 46
     0.000376163340487     0.003498224319638     0.005727419999314
     0.003498224417166     0.000376163340432    -0.005727420079279
    -0.005714413993235     0.005714413913705     0.030202275443100
1 47
     0.000766089763090     0.000021492538638    -0.004388387065416
     0.002506084673340    -0.000303409770863    -0.006456489038570
    -0.000704339000507    -0.008685717625777    -0.002519551038088
1 48
     0.000766089763088     0.004388387065359    -0.000021492538642
     0.000704339000520    -0.002519551038087    -0.008685717625989
    -0.002506084673307    -0.006456489038410    -0.000303409770862
1 49
    -0.000169953665622    -0.001677774606753    -0.001303975003996
     0.001708344714981     0.009132932490329     0.001708344691230
    -0.001303975040319    -0.001677774630161    -0.000169953665639
1 50
     0.000091724283523     0.000815670780758     0.000053428933563
     0.000721039938666     0.000095673084869    -0.000192679045473
    -0.000207998993974     0.000002209098339     0.000242187675037
1 51
     0.000093680900142     0.000569715542935     0.000068414130220
     0.000598922252337     0.000373903785884     0.000261127850524
    -0.000056941477293     0.000030173869462     0.000131906853685
1 52
     0.000021695036093     0.000302856264094    -0.000054095751942
     0.000302954049984     0.000081656058342    -0.000028197239789
    -0.000062486456875    -0.000073844644176     0.000027462947848
1 53
    -0.000036627536104     0.000153787801980    -0.000153787801982
     0.000153787806266    -0.000036627536104    -0.000153787804125
    -0.000153787806265    -0.000153787804121    -0.000036627536104
1 54
     0.000021695036093     0.000054095751941    -0.000302856264097
     0.000062486456876     0.000027462947848    -0.000073844644178
    -0.000302954049980    -0.000028197239788     0.000081656058342
1 55
     0.000093680900142    -0.000068414130219    -0.000569715542942
     0.000056941477294     0.000131906853685     0.000030173869462
    -0.000598922252330     0.000261127850518     0.000373903785884
1 56
     0.000091724283523    -0.000053428933562    -0.000815670780768
     0.000207998993976     0.000242187675037     0.000002209098338
    -0.000721039938657    -0.000192679045468     0.000095673084869
1 57
    -0.000169953665623     0.001303975003981     0.001677774606776
     0.001303975040335    -0.000169953665639    -0.001677774630202
    -0.001708344714965     0.001708344691189     0.009132932490331
1 58
     0.000348430481554    -0.000134070204369    -0.001319626866161
     0.000842498186078     0.000068319476574    -0.001893421274594
    -0.000177139286511    -0.002740894183321    -0.000309084243075
1 59
     0.000013407594726     0.000458839063014    -0.000458839063021
     0.000931619652087     0.000147692305163    -0.002392733974080
    -0.000931619652075    -0.002392733974021     0.000147692305164
1 60
     0.000348430481553     0.001319626866144     0.000134070204370
     0.000177139286514    -0.000309084243074    -0.002740894183388
    -0.000842498186067    -0.001893421274547     0.000068319476575
1 61
    -0.000073012534450    -0.000403040886561    -0.000499786472888
     0.000560465681672     0.003303532830865     0.000560465673881
    -0.000499786486810    -0.000403040892189    -0.000073012534455
1 62
     0.000181832266123     0.000472659056797     0.000029364508874
     0.000490380615955     0.000268695449195     0.000089489278935
    -0.000088666389002     0.000103864019229     0.000281840263434
1 63
     0.000039290391087     0.000153416635605    -0.000039343607148
     0.000091286144590     0.000310406910833    -0.000091286143320
    -0.000039343608243    -0.000153416637740     0.000039290391088
1 64
     0.000027462947848     0.000073844643148    -0.000062486455136
     0.000028197240181     0.000081656058342    -0.000302954045765
    -0.000054095753447    -0.000302856268311     0.000021695036093
1 65
     0.000027462947848     0.000062486455135    -0.000073844643149
     0.000054095753448     0.000021695036093    -0.000302856268319
    -0.000028197240181    -0.000302954045758     0.000081656058342
1 66
     0.000039290391087     0.000039343607148    -0.000153416635607
     0.000039343608244     0.000039290391088    -0.000153416637744
    -0.000091286144589    -0.000091286143317     0.000310406910832
1 67
     0.000181832266123    -0.000029364508874    -0.000472659056802
     0.000088666389003     0.000281840263434     0.000103864019232
    -0.000490380615949     0.000089489278933     0.000268695449195
1 68
    -0.000073012534450     0.000499786472882     0.000403040886567
     0.000499786486816    -0.000073012534455    -0.000403040892199
    -0.000560465681666     0.000560465673867     0.003303532830865
1 69
     0.000174753752609    -0.000014657396310    -0.000415322806964
     0.000229963310848     0.000020570312619    -0.000681114798119
    -0.000192128194229    -0.000813048772912     0.000061439243226
1 70
    -0.000009357631789     0.000210650255422    -0.000213865190505
     0.000398100566507    -0.000016190702191    -0.000893443677691
    -0.000397106688686    -0.000913081413319     0.000148496981872
1 71
    -0.000009357631789     0.000213865190502    -0.000210650255425
     0.000397106688691     0.000148496981872    -0.000913081413342
    -0.000398100566502    -0.000893443677669    -0.000016190702191
1 72
     0.000174753752609     0.000415322806959     0.000014657396309
     0.000192128194231     0.000061439243226    -0.000813048772932
    -0.000229963310844    -0.000681114798102     0.000020570312619
1 73
    -0.000020150974594     0.000000000000016    -0.000000000000000
    -0.000000000000016     0.003642433973471     0.000000000000003
     0.000000000000000    -0.000000000000003    -0.000020150974594
1 74
     0.000281840263434    -0.000103864017783    -0.000088666386533
    -0.000089489280181     0.000268695449195    -0.000490380609126
     0.000029364509693    -0.000472659063379     0.000181832266123
1 75
     0.000131906853684    -0.000030173869040    -0.000056941475709
    -0.000261127854161     0.000373903785885    -0.000598922243996
     0.000068414132127    -0.000569715550869     0.000093680900142
1 76
     0.000177289091020     0.000007262723886    -0.000007262723887
    -0.000196306155160     0.000213431772990    -0.000631557849302
     0.000196306155158    -0.000631557849287     0.000213431772990
1 77
     0.000131906853684     0.000056941475708     0.000030173869040
    -0.000068414132127     0.000093680900142    -0.000569715550883
     0.000261127854158    -0.000598922243982     0.000373903785885
1 78
     0.000281840263434     0.000088666386532     0.000103864017784
    -0.000029364509694     0.000181832266123    -0.000472659063391
     0.000089489280181    -0.000490380609114     0.000268695449195
1 79
    -0.000020150974594     0.000000000000000    -0.000000000000015
     0.000000000000000    -0.000020150974594    -0.000000000000003
     0.000000000000015     0.000000000000003     0.003642433973471
1 80
     0.000281840263435    -0.000088666386529    -0.000103864017788
     0.000029364509691     0.000181832266122    -0.000472659063391
    -0.000089489280176    -0.000490380609113     0.000268695449195
1 81
     0.000131906853687    -0.000056941475704    -0.000030173869047
     0.000068414132123     0.000093680900141    -0.000569715550883
    -0.000261127854151    -0.000598922243979     0.000373903785883
1 82
     0.000177289091023    -0.000007262723881     0.000007262723881
     0.000196306155155     0.000213431772988    -0.000631557849300
    -0.000196306155152    -0.000631557849285     0.000213431772988
1 83
     0.000131906853687     0.000030173869047     0.000056941475704
     0.000261127854154     0.000373903785883    -0.000598922243994
    -0.000068414132122    -0.000569715550869     0.000093680900141
1 84
     0.000281840263435     0.000103864017786     0.000088666386530
     0.000089489280178     0.000268695449195    -0.000490380609125
    -0.000029364509690    -0.000472659063380     0.000181832266122
1 85
    -0.000073012534459     0.000403040886590    -0.000499786472892
    -0.000560465681701     0.003303532830872    -0.000560465673880
    -0.000499786486813     0.000403040892189    -0.000073012534454
1 86
     0.000242187675038    -0.000002209098308    -0.000207998988183
     0.000192679048157     0.000095673084868    -0.000721039928625
     0.000053428935055    -0.000815670792118     0.000091724283523
1 87
     0.000140858531578     0.000217872842056    -0.000293185064957
     0.000000315186819     0.000223473029698    -0.000808988674237
    -0.000090916074012    -0.000789291787799     0.000083573906203
1 88
     0.000140858531578     0.000293185064953    -0.000217872842059
     0.000090916074014     0.000083573906203    -0.000789291787818
    -0.000000315186819    -0.000808988674217     0.000223473029698
1 89
     0.000242187675038     0.000207998988180     0.000002209098307
    -0.000053428935055     0.000091724283523    -0.000815670792138
    -0.000192679048155    -0.000721039928607     0.000095673084868
1 90
    -0.000073012534458     0.000499786472886    -0.000403040886594
     0.000499786486819    -0.000073012534454     0.000403040892198
     0.000560465681693    -0.000560465673866     0.003303532830871
1 91
     0.000181832266122     0.000029364508874    -0.000472659056803
    -0.000088666389003     0.000281840263435    -0.000103864019236
    -0.000490380615948    -0.000089489278929     0.000268695449195
1 92
     0.000142155642489    -0.000039341420509    -0.000206461580235
    -0.000039341421608     0.000142155642489    -0.000206461583113
    -0.000317446303720    -0.000317446299296     0.000367939776855
1 93
     0.000273912142575     0.000071325096894    -0.000166805212402
     0.000084779079331     0.000248420573058    -0.000306515122278
    -0.000242103801778    -0.000338140147440     0.000276803630516
1 94
     0.000273912142575     0.000166805212400    -0.000071325096895
     0.000242103801782     0.000276803630516    -0.000338140147448
    -0.000084779079330    -0.000306515122271     0.000248420573058
1 95
     0.000142155642489     0.000206461580233     0.000039341420510
     0.000317446303724     0.000367939776855    -0.000317446299303
     0.000039341421607    -0.000206461583108     0.000142155642489
1 96
     0.000181832266123     0.000472659056797    -0.000029364508874
     0.000490380615954     0.000268695449195    -0.000089489278931
     0.000088666389002    -0.000103864019233     0.000281840263435
1 97
    -0.000169953665652     0.001677774606833    -0.001303975004009
    -0.001708344715062     0.009132932490354    -0.001708344691228
    -0.001303975040331     0.001677774630159    -0.000169953665634
1 98
     0.000390088197060     0.000212336412030    -0.000778010284160
     0.001321537023597    -0.000300842380611    -0.001746182272098
     0.000168322475508    -0.002586996956299     0.000168547959368
1 99
     0.000070685555530     0.000912820203325    -0.000912820203336
     0.000394595156553     0.000224363317213    -0.002198208972112
    -0.000394595156548    -0.002198208972058     0.000224363317213
1 100
     0.000390088197059     0.000778010284150    -0.000212336412034
    -0.000168322475509     0.000168547959369    -0.002586996956362
    -0.001321537023580    -0.001746182272055    -0.000300842380610
1 101
    -0.000169953665651     0.001303975003992    -0.001677774606849
     0.001303975040346    -0.000169953665634     0.001677774630199
     0.001708344715038    -0.001708344691186     0.009132932490353
1 102
     0.000020570312619     0.000229963304439    -0.000681114788625
    -0.000014657396722     0.000174753752609    -0.000415322812754
    -0.000813048784245    -0.000192128191551     0.000061439243225
1 103
     0.000093680900141     0.000068414130218    -0.000569715542942
    -0.000056941477293     0.000131906853686    -0.000030173869467
    -0.000598922252327    -0.000261127850512     0.000373903785883
1 104
     0.000248420573058     0.000084779076970    -0.000306515118006
     0.000071325098881     0.000273912142574    -0.000166805214727
    -0.000338140152153    -0.000242103798404     0.000276803630517
1 105
     0.000338142082658     0.000178969890122    -0.000178969890124
     0.000178969895110     0.000338142082658    -0.000178969892619
    -0.000178969895108    -0.000178969892614     0.000338142082658
1 106
     0.000248420573058     0.000306515118002    -0.000084779076971
     0.000338140152157     0.000276803630516    -0.000242103798410
    -0.000071325098880    -0.000166805214723     0.000273912142574
1 107
     0.000093680900141     0.000569715542935    -0.000068414130219
     0.000598922252334     0.000373903785883    -0.000261127850518
     0.000056941477292    -0.000030173869467     0.000131906853686
1 108
     0.000020570312619     0.000681114788617    -0.000229963304442
     0.000813048784255     0.000061439243225    -0.000192128191556
     0.000014657396722    -0.000415322812743     0.000174753752609
1 109
     0.000376163340390     0.005727419999495    -0.003498224319721
    -0.005714413993551     0.030202275443180    -0.005714413913828
    -0.003498224417164     0.005727420079127     0.000376163340449
1 110
     0.000664261268988     0.000797917893601    -0.002491920871331
     0.004699172654553    -0.002519253562384    -0.006090268154705
    -0.000130094265973    -0.008531039316276    -0.000279334078554
1 111
     0.000664261268985     0.002491920871298    -0.000797917893615
     0.000130094265978    -0.000279334078553    -0.008531039316485
    -0.004699172654493    -0.006090268154554    -0.002519253562382
1 112
     0.000376163340394     0.003498224319676    -0.005727419999551
     0.003498224417204     0.000376163340449     0.005727420079263
     0.005714413993472    -0.005714413913689     0.030202275443176
1 113
     0.000068319476577     0.000842498162597    -0.001893421248202
    -0.000134070208121     0.000348430481557    -0.001319626884558
    -0.002740894221530    -0.000177139284042    -0.000309084243081
1 114
    -0.000016190702191     0.000398100555412    -0.000893443665239
     0.000210650261291    -0.000009357631789    -0.000213865193485
    -0.000913081426046    -0.000397106683152     0.000148496981873
1 115
     0.000213431772988     0.000196306149685    -0.000631557840497
    -0.000007262724085     0.000177289091022     0.000007262723982
    -0.000631557858089    -0.000196306152417     0.000213431772989
1 116
     0.000276803630516     0.000242103795033    -0.000338140142735
     0.000166805217049     0.000273912142574    -0.000071325097889
    -0.000306515126543    -0.000084779078149     0.000248420573058
1 117
     0.000276803630516     0.000338140142731    -0.000242103795036
     0.000306515126547     0.000248420573058    -0.000084779078152
    -0.000166805217047    -0.000071325097887     0.000273912142574
1 118
     0.000213431772988     0.000631557840490    -0.000196306149687
     0.000631557858096     0.000213431772989    -0.000196306152422
     0.000007262724085     0.000007262723982     0.000177289091022
1 119
    -0.000016190702191     0.000893443665228    -0.000398100555417
     0.000913081426057     0.000148496981873    -0.000397106683163
    -0.000210650261288    -0.000213865193479    -0.000009357631789
1 120
     0.000068319476578     0.001893421248179    -0.000842498162607
     0.002740894221564    -0.000309084243082    -0.000177139284048
     0.000134070208119    -0.001319626884526     0.000348430481557
1 121
     0.000708044658472     0.022978629774794    -0.010843299121733
    -0.023677223534118     0.102338949675895    -0.023677223203886
    -0.010843299423768     0.022978630094359     0.000708044658714
1 122
     0.001831919684108     0.003876841960125    -0.003876841960188
     0.011404102104496    -0.014906536259945    -0.025878389518991
    -0.011404102104342    -0.025878389518355    -0.014906536259942
1 123
     0.000708044658490     0.010843299121592    -0.022978629775028
     0.010843299423892     0.000708044658714     0.022978630094906
     0.023677223533801    -0.023677223203314     0.102338949675878
1 124
    -0.000303409770856     0.002506084603496    -0.006456488948570
     0.000021492539193     0.000766089763102    -0.004388387126600
    -0.008685717746860    -0.000704338990686    -0.002519551038108
1 125
     0.000147692305163     0.000931619626126    -0.002392733940729
     0.000458839075797     0.000013407594725    -0.000458839069415
    -0.002392734007373    -0.000931619639092     0.000147692305165
1 126
     0.000148496981872     0.000397106677624    -0.000913081400615
     0.000213865196461    -0.000009357631789    -0.000210650258360
    -0.000893443690124    -0.000398100560954    -0.000016190702190
1 127
     0.000373903785882     0.000261127846876    -0.000598922235645
     0.000030173869887     0.000131906853686     0.000056941476498
    -0.000569715558811    -0.000068414131169     0.000093680900141
1 128
     0.000367939776854     0.000317446294875    -0.000317446294879
     0.000206461585988     0.000142155642489     0.000039341421059
    -0.000206461585986     0.000039341421058     0.000142155642489
1 129
     0.000373903785883     0.000598922235638    -0.000261127846880
     0.000569715558818     0.000093680900141    -0.000068414131171
    -0.000030173869886     0.000056941476497     0.000131906853686
1 130
     0.000148496981872     0.000913081400603    -0.000397106677630
     0.000893443690135    -0.000016190702190    -0.000398100560964
    -0.000213865196458    -0.000210650258355    -0.000009357631789
1 131
     0.000147692305164     0.002392733940699    -0.000931619626137
     0.002392734007403     0.000147692305165    -0.000931619639116
    -0.000458839075791    -0.000458839069403     0.000013407594725
1 132
    -0.000303409770854     0.006456488948489    -0.002506084603527
     0.008685717746967    -0.002519551038108    -0.000704338990708
    -0.000021492539192    -0.004388387126490     0.000766089763101
1 133
    -0.168231915328584     0.106284118562506    -0.158067411273601
    -0.100780298520845     0.421594430608839    -0.100780297115000
    -0.158067415676583     0.106284120040541    -0.168231915327514
1 134
    -0.168231915328508     0.158067411271638    -0.106284118563544
     0.158067415678469    -0.168231915327514     0.106284120043034
     0.100780298519436    -0.100780297112523     0.421594430608763
1 135
    -0.015209168681947     0.004016812902925    -0.026425432125581
     0.011299353576138     0.002287084206162    -0.011299353418929
    -0.026425432861603    -0.004016812958706    -0.015209168681974
1 136
    -0.002519551038094     0.000704338980921    -0.008685717504923
     0.004388387187683     0.000766089763079    -0.000021492538930
    -0.006456489128390    -0.002506084638372    -0.000303409770846
1 137
    -0.000309084243077     0.000177139281588    -0.002740894145183
     0.001319626902928     0.000348430481550     0.000134070206242
    -0.001893421300935    -0.000842498174323     0.000068319476581
1 138
     0.000061439243226     0.000192128188878    -0.000813048761598
     0.000415322818535     0.000174753752608     0.000014657396515
    -0.000681114807595    -0.000229963307639     0.000020570312620
1 139
     0.000268695449195     0.000089489277684    -0.000490380602289
     0.000103864020681     0.000281840263434     0.000088666387766
    -0.000472659069969    -0.000029364509281     0.000181832266123
1 140
     0.000268695449195     0.000490380602283    -0.000089489277686
     0.000472659069974     0.000181832266123    -0.000029364509282
    -0.000103864020679     0.000088666387764     0.000281840263434
1 141
     0.000061439243226     0.000813048761588    -0.000192128188881
     0.000681114807604     0.000020570312620    -0.000229963307645
    -0.000415322818530     0.000014657396515     0.000174753752608
1 142
    -0.000309084243078     0.002740894145150    -0.000177139281590
     0.001893421300959     0.000068319476581    -0.000842498174344
    -0.001319626902912     0.000134070206240     0.000348430481550
1 143
    -0.002519551038096     0.008685717504818    -0.000704338980929
     0.006456489128468    -0.000303409770846    -0.002506084638436
    -0.004388387187631    -0.000021492538925     0.000766089763081
1 144
    -0.015209168681950     0.026425432125255    -0.004016812902969
     0.026425432861926    -0.015209168681974    -0.004016812958816
    -0.011299353576003    -0.011299353418640     0.002287084206165
1 145
    -0.168231915328507    -0.158067411271795    -0.106284118564719
    -0.158067415678618    -0.168231915327820    -0.106284120044846
     0.100780298518778     0.100780297112503     0.421594430609069
1 146
    -0.014906536259879    -0.011404101786441     0.025878389158259