
     Program PWSCF v.7.4 starts on 10Jun2025 at 16:12:53 

     This program is part of the open-source Quantum ESPRESSO suite
     for quantum simulation of materials; please cite
         "P. Giannozzi et al., J. Phys.:Condens. Matter 21 395502 (2009);
         "P. Giannozzi et al., J. Phys.:Condens. Matter 29 465901 (2017);
         "P. Giannozzi et al., J. Chem. Phys. 152 154105 (2020);
          URL http://www.quantum-espresso.org", 
     in publications or presentations arising from this work. More details at
     http://www.quantum-espresso.org/quote

     Parallel version (MPI), running on     1 processors

     MPI processes distributed on     1 nodes
     6829 MiB available memory on the printing compute node when the environment starts

     Reading input from pw.graphene.nscf.in

     Current dimensions of program PWSCF are:
     Max number of different atomic species (ntypx) = 10
     Max number of k-points (npk) =  40000
     Max angular momentum in pseudopotentials (lmaxx) =  4
     file C.pbe-rrkjus.UPF: wavefunction(s)  2S 2P renormalized

     Atomic positions and unit cell read from directory:
     ./tmp/Graphene_1x1_PBE.save/

     [opt_tetra]  Optimized tetrahedron method is used.

     Subspace diagonalization in iterative solution of the eigenvalue problem:
     a serial algorithm will be used


     G-vector sticks info
     --------------------
     sticks:   dense  smooth     PW     G-vecs:    dense   smooth      PW
     Sum         595     241     85                35435     8973    1713

     Using Slab Decomposition



     bravais-lattice index     =            4
     lattice parameter (alat)  =       4.6540  a.u.
     unit-cell volume          =     261.8973 (a.u.)^3
     number of atoms/cell      =            2
     number of atomic types    =            1
     number of electrons       =         8.00
     number of Kohn-Sham states=            8
     kinetic-energy cutoff     =      40.0000  Ry
     charge density cutoff     =     400.0000  Ry
     Exchange-correlation=  SLA  PW   PBE  PBE
                           (   1   4   3   4   0   0   0)

     celldm(1)=   4.654000  celldm(2)=   0.000000  celldm(3)=   3.000000
     celldm(4)=   0.000000  celldm(5)=   0.000000  celldm(6)=   0.000000

     crystal axes: (cart. coord. in units of alat)
               a(1) = (   1.000000   0.000000   0.000000 )  
               a(2) = (  -0.500000   0.866025   0.000000 )  
               a(3) = (   0.000000   0.000000   3.000000 )  

     reciprocal axes: (cart. coord. in units 2 pi/alat)
               b(1) = (  1.000000  0.577350 -0.000000 )  
               b(2) = (  0.000000  1.154701  0.000000 )  
               b(3) = (  0.000000 -0.000000  0.333333 )  


     PseudoPot. # 1 for C  read from file:
     ../pseudo/C.pbe-rrkjus.UPF
     MD5 check sum: 00fb224312de0c5b6853bd333518df6f
     Pseudo is Ultrasoft, Zval =  4.0
     Generated by new atomic code, or converted to UPF format
     Using radial grid of  627 points,  4 beta functions with: 
                l(1) =   0
                l(2) =   0
                l(3) =   1
                l(4) =   1
     Q(r) pseudized with 0 coefficients 


     atomic species   valence    mass     pseudopotential
     C                 4.00    12.01070     C ( 1.00)

     24 Sym. Ops., with inversion, found (12 have fractional translation)



   Cartesian axes

     site n.     atom                  positions (alat units)
         1        C      tau(   1) = (   0.0000000   0.0000000   0.0000000  )
         2        C      tau(   2) = (   0.0000000   0.5773503   0.0000000  )

     number of k points=    27 (tetrahedron method)
                       cart. coord. in units 2pi/alat
        k(    1) = (   0.0000000   0.0000000   0.0000000), wk =   0.0088889
        k(    2) = (   0.0000000   0.0769800   0.0000000), wk =   0.0533333
        k(    3) = (   0.0000000   0.1539601   0.0000000), wk =   0.0533333
        k(    4) = (   0.0000000   0.2309401   0.0000000), wk =   0.0533333
        k(    5) = (   0.0000000   0.3079201   0.0000000), wk =   0.0533333
        k(    6) = (   0.0000000   0.3849002   0.0000000), wk =   0.0533333
        k(    7) = (   0.0000000   0.4618802   0.0000000), wk =   0.0533333
        k(    8) = (   0.0000000   0.5388603   0.0000000), wk =   0.0533333
        k(    9) = (   0.0666667   0.1154701   0.0000000), wk =   0.0533333
        k(   10) = (   0.0666667   0.1924501   0.0000000), wk =   0.1066667
        k(   11) = (   0.0666667   0.2694301   0.0000000), wk =   0.1066667
        k(   12) = (   0.0666667   0.3464102   0.0000000), wk =   0.1066667
        k(   13) = (   0.0666667   0.4233902   0.0000000), wk =   0.1066667
        k(   14) = (   0.0666667   0.5003702   0.0000000), wk =   0.1066667
        k(   15) = (   0.0666667   0.5773503   0.0000000), wk =   0.0533333
        k(   16) = (   0.1333333   0.2309401   0.0000000), wk =   0.0533333
        k(   17) = (   0.1333333   0.3079201   0.0000000), wk =   0.1066667
        k(   18) = (   0.1333333   0.3849002   0.0000000), wk =   0.1066667
        k(   19) = (   0.1333333   0.4618802   0.0000000), wk =   0.1066667
        k(   20) = (   0.1333333   0.5388603   0.0000000), wk =   0.1066667
        k(   21) = (   0.2000000   0.3464102   0.0000000), wk =   0.0533333
        k(   22) = (   0.2000000   0.4233902   0.0000000), wk =   0.1066667
        k(   23) = (   0.2000000   0.5003702   0.0000000), wk =   0.1066667
        k(   24) = (   0.2000000   0.5773503   0.0000000), wk =   0.0533333
        k(   25) = (   0.2666667   0.4618802   0.0000000), wk =   0.0533333
        k(   26) = (   0.2666667   0.5388603   0.0000000), wk =   0.1066667
        k(   27) = (   0.3333333   0.5773503   0.0000000), wk =   0.0177778

     Dense  grid:    35435 G-vectors     FFT dimensions: (  30,  30,  90)

     Smooth grid:     8973 G-vectors     FFT dimensions: (  24,  24,  60)

     Estimated max dynamical RAM per process >      35.48 MB

     The potential is recalculated from file :
     ./tmp/Graphene_1x1_PBE.save/charge-density


     negative rho (up, down):  1.127E-04 0.000E+00
     Starting wfcs are    8 randomized atomic wfcs

     Band Structure Calculation
     Davidson diagonalization with overlap

     ethr =  1.25E-10,  avg # of iterations = 29.0

     total cpu time spent up to now is        2.3 secs

     End of band structure calculation

          k = 0.0000 0.0000 0.0000 (  1133 PWs)   bands (ev):

   -18.6218  -6.7393  -2.1819  -2.1819   3.7240   7.1152   9.1876   9.1876

          k = 0.0000 0.0770 0.0000 (  1118 PWs)   bands (ev):

   -18.5168  -6.6136  -2.6031  -2.4038   3.8672   7.2522   9.1996   9.5200

          k = 0.0000 0.1540 0.0000 (  1122 PWs)   bands (ev):

   -18.2025  -6.2385  -3.7240  -2.9665   4.2970   7.6608   9.2206   9.9473

          k = 0.0000 0.2309 0.0000 (  1128 PWs)   bands (ev):

   -17.6813  -5.6212  -5.2635  -3.6703   5.0128   8.3189   9.1107   9.4935

          k = 0.0000 0.3079 0.0000 (  1110 PWs)   bands (ev):

   -16.9573  -6.9886  -4.7767  -4.3552   6.0131   7.6593   8.8872   9.3337

          k = 0.0000 0.3849 0.0000 (  1118 PWs)   bands (ev):

   -16.0380  -8.7480  -4.9252  -3.7385   5.8151   7.2927   8.6488  10.5140

          k = 0.0000 0.4619 0.0000 (  1120 PWs)   bands (ev):

   -14.9395 -10.4430  -5.3274  -2.5931   4.0634   8.4190   8.8925  11.9281

          k = 0.0000 0.5389 0.0000 (  1128 PWs)   bands (ev):

   -13.7373 -11.9533  -5.5345  -1.6355   2.7840   8.3369  10.6990  12.7721

          k = 0.0667 0.1155 0.0000 (  1117 PWs)   bands (ev):

   -18.3071  -6.3631  -3.3228  -2.8480   4.1538   7.5252   9.3462   9.8302

          k = 0.0667 0.1925 0.0000 (  1123 PWs)   bands (ev):

   -17.8894  -5.8667  -4.5643  -3.5719   4.7268   8.0655   9.5067  10.0580

          k = 0.0667 0.2694 0.0000 (  1122 PWs)   bands (ev):

   -17.2668  -6.1382  -5.1346  -4.3261   5.5853   8.4007   8.9395   9.4292

          k = 0.0667 0.3464 0.0000 (  1120 PWs)   bands (ev):

   -16.4451  -7.8499  -4.9846  -4.1889   6.6593   6.7269   9.2178   9.9615

          k = 0.0667 0.4234 0.0000 (  1117 PWs)   bands (ev):

   -15.4349  -9.5632  -5.4856  -3.0807   4.8649   8.1420   9.0100  11.2483

          k = 0.0667 0.5004 0.0000 (  1118 PWs)   bands (ev):

   -14.2659 -11.1774  -5.7966  -1.9627   3.2978   8.8355   9.8620  12.6909

          k = 0.0667 0.5774 0.0000 (  1124 PWs)   bands (ev):

   -13.3043 -12.2910  -5.9019  -1.3736   2.5527   8.7883  11.7297  11.8838

          k = 0.1333 0.2309 0.0000 (  1123 PWs)   bands (ev):

   -17.3703  -5.6578  -5.2547  -4.5304   5.4429   8.7328   8.7564  10.1677

          k = 0.1333 0.3079 0.0000 (  1121 PWs)   bands (ev):

   -16.6499  -7.0457  -5.4326  -4.4175   6.4434   7.2023   9.6474  10.4539

          k = 0.1333 0.3849 0.0000 (  1130 PWs)   bands (ev):

   -15.7365  -8.6311  -6.1038  -3.3863   5.5288   7.7246  10.3341  10.7735

          k = 0.1333 0.4619 0.0000 (  1115 PWs)   bands (ev):

   -14.6474 -10.2388  -6.5466  -2.2407   3.8997   9.2756  10.1677  12.0129

          k = 0.1333 0.5389 0.0000 (  1108 PWs)   bands (ev):

   -13.4606 -11.7024  -6.7679  -1.2609   2.6600  10.0461  11.1067  13.0380

          k = 0.2000 0.3464 0.0000 (  1127 PWs)   bands (ev):

   -15.8376  -8.0541  -6.6016  -3.4901   5.8002   7.5834  10.5949  11.6814

          k = 0.2000 0.4234 0.0000 (  1123 PWs)   bands (ev):

   -14.8429  -9.3334  -7.4182  -2.3957   4.3237   8.9987  11.5919  11.9373

          k = 0.2000 0.5004 0.0000 (  1110 PWs)   bands (ev):

   -13.6992 -10.7567  -7.8427  -1.2584   2.9345  10.6708  11.8132  12.2674

          k = 0.2000 0.5774 0.0000 (  1104 PWs)   bands (ev):

   -12.7666 -11.7984  -7.9748  -0.6090   2.1965  11.7362  12.4291  12.4647

          k = 0.2667 0.4619 0.0000 (  1107 PWs)   bands (ev):

   -13.7874 -10.1103  -8.5410  -1.2711   3.0775  10.5326  11.9502  13.5377

          k = 0.2667 0.5389 0.0000 (  1103 PWs)   bands (ev):

   -12.6500 -11.1557  -9.0804  -0.1903   1.9418  11.8356  12.2656  13.4422

          k = 0.3333 0.5774 0.0000 (  1137 PWs)   bands (ev):

   -11.6965 -11.6965  -9.6995   0.8951   0.8951  11.5862  13.5972  13.5972

     the Fermi energy is     0.8959 ev
     (compare with:     0.8955 eV, computed in scf)

     Writing all to output data dir ./tmp/Graphene_1x1_PBE.save/ :
     XML data file, pseudopotentials, collected wavefunctions

     init_run     :      0.12s CPU      0.14s WALL (       1 calls)
     electrons    :      2.08s CPU      2.09s WALL (       1 calls)

     Called by init_run:
     wfcinit      :      0.00s CPU      0.00s WALL (       1 calls)
     potinit      :      0.03s CPU      0.03s WALL (       1 calls)
     hinit0       :      0.06s CPU      0.07s WALL (       1 calls)

     Called by electrons:
     c_bands      :      2.04s CPU      2.06s WALL (       1 calls)
     v_of_rho     :      0.02s CPU      0.03s WALL (       1 calls)
     newd         :      0.01s CPU      0.01s WALL (       1 calls)

     Called by c_bands:
     init_us_2    :      0.00s CPU      0.00s WALL (      27 calls)
     cegterg      :      1.92s CPU      1.92s WALL (      55 calls)

     Called by *egterg:
     cdiaghg      :      0.15s CPU      0.15s WALL (     811 calls)
     h_psi        :      1.63s CPU      1.64s WALL (     866 calls)
     s_psi        :      0.04s CPU      0.04s WALL (     866 calls)
     g_psi        :      0.00s CPU      0.00s WALL (     784 calls)

     Called by h_psi:
     h_psi:calbec :      0.04s CPU      0.04s WALL (     866 calls)
     vloc_psi     :      1.55s CPU      1.56s WALL (     866 calls)
     add_vuspsi   :      0.04s CPU      0.04s WALL (     866 calls)

     General routines
     calbec       :      0.04s CPU      0.04s WALL (     866 calls)
     fft          :      0.01s CPU      0.02s WALL (      12 calls)
     ffts         :      0.00s CPU      0.00s WALL (       1 calls)
     fftw         :      1.38s CPU      1.38s WALL (    8248 calls)
     interpolate  :      0.00s CPU      0.00s WALL (       1 calls)
     davcio       :      0.00s CPU      0.01s WALL (      54 calls)

     Parallel routines

     PWSCF        :      2.29s CPU      2.34s WALL


   This run was terminated on:  16:12:55  10Jun2025            

=------------------------------------------------------------------------------=
   JOB DONE.
=------------------------------------------------------------------------------=
