
     Program BANDS v.7.2 starts on 23May2025 at 14:55: 3 

     This program is part of the open-source Quantum ESPRESSO suite
     for quantum simulation of materials; please cite
         "P. Giannozzi et al., J. Phys.:Condens. Matter 21 395502 (2009);
         "P. Giannozzi et al., J. Phys.:Condens. Matter 29 465901 (2017);
         "P. Giannozzi et al., J. Chem. Phys. 152 154105 (2020);
          URL http://www.quantum-espresso.org", 
     in publications or presentations arising from this work. More details at
     http://www.quantum-espresso.org/quote

     Parallel version (MPI & OpenMP), running on       1 processor cores
     Number of MPI processes:                 1
     Threads/MPI process:                     1

     MPI processes distributed on     1 nodes
     47863 MiB available memory on the printing compute node when the environment starts


     Reading xml data from directory:

     ./tmp/Si.save/

     IMPORTANT: XC functional enforced from input :
     Exchange-correlation= PZ
                           (   1   1   0   0   0   0   0)
     Any further DFT definition will be discarded
     Please, verify this is what you really want


     G-vector sticks info
     --------------------
     sticks:   dense  smooth     PW     G-vecs:    dense   smooth      PW
     Sum         733     295     91                12939     3287     609

     Using Slab Decomposition

     Reading collected, re-writing distributed wavefunctions
     high-symmetry point: -1.0000 0.5000 0.0000   x coordinate   0.0000
     high-symmetry point:  0.0000 0.0000 0.0000   x coordinate   1.1180
     high-symmetry point: -1.0000 0.0000 0.0000   x coordinate   2.1180
     high-symmetry point: -1.0000 0.5000 0.0000   x coordinate   2.6180
     high-symmetry point: -0.5000 0.5000 0.5000   x coordinate   3.3251
     high-symmetry point:  0.0000 0.0000 0.0000   x coordinate   4.1912

     Plottable bands (eV) written to file bands.dat.gnu
     Bands written to file bands.dat

 **************************************************************************

                    xk=(  -1.00000,   0.50000,   0.00000  )

     zone border point and non-symmorphic group 
     symmetry decomposition not available

 **************************************************************************

 **************************************************************************

                    xk=(  -0.96667,   0.48333,   0.00000  )

     point group C_s (m)    
     there are  2 classes
     the character table:

       E     s    
A'     1.00  1.00
A''    1.00 -1.00

     the symmetry operations in each class and the name of the first element:

     E        1
                                                                 
     s        2
                                                                 

     Band symmetry, C_s (m)     point group:

     e(  1 -  1) =     -1.71971  eV     1   --> A'             
     e(  2 -  2) =     -1.40023  eV     1   --> A''            
     e(  3 -  3) =      2.07567  eV     1   --> A'             
     e(  4 -  4) =      2.29743  eV     1   --> A''            
     e(  5 -  5) =     10.18027  eV     1   --> A''            
     e(  6 -  6) =     10.26837  eV     1   --> A'             
     e(  7 -  7) =     10.90824  eV     1   --> A''            
     e(  8 -  8) =     11.30887  eV     1   --> A'             
     e(  9 -  9) =     16.27757  eV     1   --> A'             
     e( 10 - 10) =     16.82621  eV     1   --> A''            

 **************************************************************************

 **************************************************************************

                    xk=(  -0.93333,   0.46667,   0.00000  )

     Band symmetry, C_s (m)     point group:

     e(  1 -  1) =     -1.89695  eV     1   --> A'             
     e(  2 -  2) =     -1.23356  eV     1   --> A''            
     e(  3 -  3) =      2.00943  eV     1   --> A'             
     e(  4 -  4) =      2.42977  eV     1   --> A''            
     e(  5 -  5) =     10.07954  eV     1   --> A''            
     e(  6 -  6) =     10.11585  eV     1   --> A'             
     e(  7 -  7) =     10.79786  eV     1   --> A''            
     e(  8 -  8) =     11.74485  eV     1   --> A'             
     e(  9 -  9) =     15.93082  eV     1   --> A'             
     e( 10 - 10) =     16.95718  eV     1   --> A''            

 **************************************************************************

 **************************************************************************

                    xk=(  -0.90000,   0.45000,   0.00000  )

     Band symmetry, C_s (m)     point group:

     e(  1 -  1) =     -2.08816  eV     1   --> A'             
     e(  2 -  2) =     -1.05741  eV     1   --> A''            
     e(  3 -  3) =      1.97580  eV     1   --> A'             
     e(  4 -  4) =      2.57170  eV     1   --> A''            
     e(  5 -  5) =      9.93715  eV     1   --> A'             
     e(  6 -  6) =      9.98935  eV     1   --> A''            
     e(  7 -  7) =     10.69898  eV     1   --> A''            
     e(  8 -  8) =     12.23177  eV     1   --> A'             
     e(  9 -  9) =     15.56975  eV     1   --> A'             
     e( 10 - 10) =     16.92903  eV     1   --> A''            

 **************************************************************************

 **************************************************************************

                    xk=(  -0.86667,   0.43333,   0.00000  )

     Band symmetry, C_s (m)     point group:

     e(  1 -  1) =     -2.29077  eV     1   --> A'             
     e(  2 -  2) =     -0.87179  eV     1   --> A''            
     e(  3 -  3) =      1.97284  eV     1   --> A'             
     e(  4 -  4) =      2.72242  eV     1   --> A''            
     e(  5 -  5) =      9.75716  eV     1   --> A'             
     e(  6 -  6) =      9.91062  eV     1   --> A''            
     e(  7 -  7) =     10.61116  eV     1   --> A''            
     e(  8 -  8) =     12.74146  eV     1   --> A'             
     e(  9 -  9) =     15.20435  eV     1   --> A'             
     e( 10 - 10) =     16.75898  eV     1   --> A''            

 **************************************************************************

 **************************************************************************

                    xk=(  -0.83333,   0.41667,   0.00000  )

     Band symmetry, C_s (m)     point group:

     e(  1 -  1) =     -2.50168  eV     1   --> A'             
     e(  2 -  2) =     -0.67665  eV     1   --> A''            
     e(  3 -  3) =      1.99815  eV     1   --> A'             
     e(  4 -  4) =      2.88035  eV     1   --> A''            
     e(  5 -  5) =      9.58439  eV     1   --> A'             
     e(  6 -  6) =      9.84326  eV     1   --> A''            
     e(  7 -  7) =     10.53394  eV     1   --> A''            
     e(  8 -  8) =     13.26469  eV     1   --> A'             
     e(  9 -  9) =     14.83886  eV     1   --> A'             
     e( 10 - 10) =     16.50438  eV     1   --> A''            

 **************************************************************************

 **************************************************************************

                    xk=(  -0.80000,   0.40000,   0.00000  )

     Band symmetry, C_s (m)     point group:

     e(  1 -  1) =     -2.71753  eV     1   --> A'             
     e(  2 -  2) =     -0.47218  eV     1   --> A''            
     e(  3 -  3) =      2.04919  eV     1   --> A'             
     e(  4 -  4) =      3.04579  eV     1   --> A''            
     e(  5 -  5) =      9.42092  eV     1   --> A'             
     e(  6 -  6) =      9.79049  eV     1   --> A''            
     e(  7 -  7) =     10.46611  eV     1   --> A''            
     e(  8 -  8) =     13.79803  eV     1   --> A'             
     e(  9 -  9) =     14.47782  eV     1   --> A'             
     e( 10 - 10) =     16.21716  eV     1   --> A''            

 **************************************************************************

 **************************************************************************

                    xk=(  -0.76667,   0.38333,   0.00000  )

     Band symmetry, C_s (m)     point group:

     e(  1 -  1) =     -2.93582  eV     1   --> A'             
     e(  2 -  2) =     -0.25829  eV     1   --> A''            
     e(  3 -  3) =      2.12349  eV     1   --> A'             
     e(  4 -  4) =      3.21697  eV     1   --> A''            
     e(  5 -  5) =      9.26816  eV     1   --> A'             
     e(  6 -  6) =      9.75245  eV     1   --> A''            
     e(  7 -  7) =     10.40683  eV     1   --> A''            
     e(  8 -  8) =     14.12192  eV     1   --> A'             
     e(  9 -  9) =     14.33523  eV     1   --> A'             
     e( 10 - 10) =     15.91708  eV     1   --> A''            

 **************************************************************************

 **************************************************************************

                    xk=(  -0.73333,   0.36667,   0.00000  )

     Band symmetry, C_s (m)     point group:

     e(  1 -  1) =     -3.15438  eV     1   --> A'             
     e(  2 -  2) =     -0.03517  eV     1   --> A''            
     e(  3 -  3) =      2.21879  eV     1   --> A'             
     e(  4 -  4) =      3.39256  eV     1   --> A''            
     e(  5 -  5) =      9.12629  eV     1   --> A'             
     e(  6 -  6) =      9.73004  eV     1   --> A''            
     e(  7 -  7) =     10.35440  eV     1   --> A''            
     e(  8 -  8) =     13.77117  eV     1   --> A'             
     e(  9 -  9) =     14.86843  eV     1   --> A'             
     e( 10 - 10) =     15.61576  eV     1   --> A''            

 **************************************************************************

 **************************************************************************

                    xk=(  -0.70000,   0.35000,  -0.00000  )

     Band symmetry, C_s (m)     point group:

     e(  1 -  1) =     -3.37063  eV     1   --> A'             
     e(  2 -  2) =      0.19749  eV     1   --> A''            
     e(  3 -  3) =      2.33329  eV     1   --> A'             
     e(  4 -  4) =      3.57139  eV     1   --> A''            
     e(  5 -  5) =      8.99753  eV     1   --> A'             
     e(  6 -  6) =      9.72462  eV     1   --> A''            
     e(  7 -  7) =     10.30869  eV     1   --> A''            
     e(  8 -  8) =     13.42866  eV     1   --> A'             
     e(  9 -  9) =     15.32026  eV     1   --> A''            
     e( 10 - 10) =     15.39195  eV     1   --> A'             

 **************************************************************************

 **************************************************************************

                    xk=(  -0.66667,   0.33333,   0.00000  )

     Band symmetry, C_s (m)     point group:

     e(  1 -  1) =     -3.58305  eV     1   --> A'             
     e(  2 -  2) =      0.43958  eV     1   --> A''            
     e(  3 -  3) =      2.46493  eV     1   --> A'             
     e(  4 -  4) =      3.75202  eV     1   --> A''            
     e(  5 -  5) =      8.88092  eV     1   --> A'             
     e(  6 -  6) =      9.73778  eV     1   --> A''            
     e(  7 -  7) =     10.26801  eV     1   --> A''            
     e(  8 -  8) =     13.09338  eV     1   --> A'             
     e(  9 -  9) =     15.03603  eV     1   --> A''            
     e( 10 - 10) =     15.88987  eV     1   --> A'             

 **************************************************************************

 **************************************************************************

                    xk=(  -0.63333,   0.31667,  -0.00000  )

     Band symmetry, C_s (m)     point group:

     e(  1 -  1) =     -3.79028  eV     1   --> A'             
     e(  2 -  2) =      0.69082  eV     1   --> A''            
     e(  3 -  3) =      2.61205  eV     1   --> A'             
     e(  4 -  4) =      3.93276  eV     1   --> A''            
     e(  5 -  5) =      8.77553  eV     1   --> A'             
     e(  6 -  6) =      9.76753  eV     1   --> A''            
     e(  7 -  7) =     10.23139  eV     1   --> A''            
     e(  8 -  8) =     12.76583  eV     1   --> A'             
     e(  9 -  9) =     14.76332  eV     1   --> A''            
     e( 10 - 10) =     16.33832  eV     1   --> A'             

 **************************************************************************

 **************************************************************************

                    xk=(  -0.60000,   0.30000,   0.00000  )

     Band symmetry, C_s (m)     point group:

     e(  1 -  1) =     -3.99128  eV     1   --> A'             
     e(  2 -  2) =      0.95118  eV     1   --> A''            
     e(  3 -  3) =      2.77281  eV     1   --> A'             
     e(  4 -  4) =      4.11175  eV     1   --> A''            
     e(  5 -  5) =      8.68187  eV     1   --> A'             
     e(  6 -  6) =      9.81064  eV     1   --> A''            
     e(  7 -  7) =     10.19793  eV     1   --> A''            
     e(  8 -  8) =     12.44573  eV     1   --> A'             
     e(  9 -  9) =     14.50427  eV     1   --> A''            
     e( 10 - 10) =     16.70060  eV     1   --> A'             

 **************************************************************************

 **************************************************************************

                    xk=(  -0.56667,   0.28333,   0.00000  )

     Band symmetry, C_s (m)     point group:

     e(  1 -  1) =     -4.18460  eV     1   --> A'             
     e(  2 -  2) =      1.22069  eV     1   --> A''            
     e(  3 -  3) =      2.94698  eV     1   --> A'             
     e(  4 -  4) =      4.28847  eV     1   --> A''            
     e(  5 -  5) =      8.60111  eV     1   --> A'             
     e(  6 -  6) =      9.86671  eV     1   --> A''            
     e(  7 -  7) =     10.17452  eV     1   --> A''            
     e(  8 -  8) =     12.13444  eV     1   --> A'             
     e(  9 -  9) =     14.26343  eV     1   --> A''            
     e( 10 - 10) =     16.93406  eV     1   --> A'             

 **************************************************************************

 **************************************************************************

                    xk=(  -0.53333,   0.26667,   0.00000  )

     Band symmetry, C_s (m)     point group:

     e(  1 -  1) =     -4.36942  eV     1   --> A'             
     e(  2 -  2) =      1.49974  eV     1   --> A''            
     e(  3 -  3) =      3.13291  eV     1   --> A'             
     e(  4 -  4) =      4.46113  eV     1   --> A''            
     e(  5 -  5) =      8.53348  eV     1   --> A'             
     e(  6 -  6) =      9.91559  eV     1   --> A''            
     e(  7 -  7) =     10.17717  eV     1   --> A''            
     e(  8 -  8) =     11.83311  eV     1   --> A'             
     e(  9 -  9) =     14.04005  eV     1   --> A''            
     e( 10 - 10) =     16.76645  eV     1   --> A''            

 **************************************************************************

 **************************************************************************

                    xk=(  -0.50000,   0.25000,   0.00000  )

     Band symmetry, C_s (m)     point group:

     e(  1 -  1) =     -4.54551  eV     1   --> A'             
     e(  2 -  2) =      1.78691  eV     1   --> A''            
     e(  3 -  3) =      3.32907  eV     1   --> A'             
     e(  4 -  4) =      4.62808  eV     1   --> A''            
     e(  5 -  5) =      8.47725  eV     1   --> A'             
     e(  6 -  6) =      9.92584  eV     1   --> A''            
     e(  7 -  7) =     10.23055  eV     1   --> A''            
     e(  8 -  8) =     11.53867  eV     1   --> A'             
     e(  9 -  9) =     13.83276  eV     1   --> A''            
     e( 10 - 10) =     16.24676  eV     1   --> A''            

 **************************************************************************

 **************************************************************************

                    xk=(  -0.46667,   0.23333,   0.00000  )

     Band symmetry, C_s (m)     point group:

     e(  1 -  1) =     -4.71183  eV     1   --> A'             
     e(  2 -  2) =      2.08265  eV     1   --> A''            
     e(  3 -  3) =      3.53435  eV     1   --> A'             
     e(  4 -  4) =      4.78903  eV     1   --> A''            
     e(  5 -  5) =      8.43316  eV     1   --> A'             
     e(  6 -  6) =      9.89364  eV     1   --> A''            
     e(  7 -  7) =     10.33905  eV     1   --> A''            
     e(  8 -  8) =     11.25306  eV     1   --> A'             
     e(  9 -  9) =     13.64126  eV     1   --> A''            
     e( 10 - 10) =     15.75202  eV     1   --> A''            

 **************************************************************************

 **************************************************************************

                    xk=(  -0.43333,   0.21667,   0.00000  )

     Band symmetry, C_s (m)     point group:

     e(  1 -  1) =     -4.86814  eV     1   --> A'             
     e(  2 -  2) =      2.38747  eV     1   --> A''            
     e(  3 -  3) =      3.74743  eV     1   --> A'             
     e(  4 -  4) =      4.94268  eV     1   --> A''            
     e(  5 -  5) =      8.40209  eV     1   --> A'             
     e(  6 -  6) =      9.83673  eV     1   --> A''            
     e(  7 -  7) =     10.48025  eV     1   --> A''            
     e(  8 -  8) =     10.97816  eV     1   --> A'             
     e(  9 -  9) =     13.45929  eV     1   --> A''            
     e( 10 - 10) =     15.29410  eV     1   --> A''            

 **************************************************************************

 **************************************************************************

                    xk=(  -0.40000,   0.20000,   0.00000  )

     Band symmetry, C_s (m)     point group:

     e(  1 -  1) =     -5.01510  eV     1   --> A'             
     e(  2 -  2) =      2.69848  eV     1   --> A''            
     e(  3 -  3) =      3.96617  eV     1   --> A'             
     e(  4 -  4) =      5.08789  eV     1   --> A''            
     e(  5 -  5) =      8.38134  eV     1   --> A'             
     e(  6 -  6) =      9.76217  eV     1   --> A''            
     e(  7 -  7) =     10.63657  eV     1   --> A''            
     e(  8 -  8) =     10.70977  eV     1   --> A'             
     e(  9 -  9) =     13.27574  eV     1   --> A''            
     e( 10 - 10) =     14.88017  eV     1   --> A''            

 **************************************************************************

 **************************************************************************

                    xk=(  -0.36667,   0.18333,   0.00000  )

     Band symmetry, C_s (m)     point group:

     e(  1 -  1) =     -5.15038  eV     1   --> A'             
     e(  2 -  2) =      3.01787  eV     1   --> A''            
     e(  3 -  3) =      4.19027  eV     1   --> A'             
     e(  4 -  4) =      5.22568  eV     1   --> A''            
     e(  5 -  5) =      8.37298  eV     1   --> A'             
     e(  6 -  6) =      9.67663  eV     1   --> A''            
     e(  7 -  7) =     10.45305  eV     1   --> A'             
     e(  8 -  8) =     10.79639  eV     1   --> A''            
     e(  9 -  9) =     13.08870  eV     1   --> A''            
     e( 10 - 10) =     14.53602  eV     1   --> A''            

 **************************************************************************

 **************************************************************************

                    xk=(  -0.33333,   0.16667,   0.00000  )

     Band symmetry, C_s (m)     point group:

     e(  1 -  1) =     -5.27430  eV     1   --> A'             
     e(  2 -  2) =      3.34324  eV     1   --> A''            
     e(  3 -  3) =      4.41758  eV     1   --> A'             
     e(  4 -  4) =      5.35517  eV     1   --> A''            
     e(  5 -  5) =      8.37480  eV     1   --> A'             
     e(  6 -  6) =      9.58134  eV     1   --> A''            
     e(  7 -  7) =     10.20462  eV     1   --> A'             
     e(  8 -  8) =     10.93555  eV     1   --> A''            
     e(  9 -  9) =     12.89948  eV     1   --> A''            
     e( 10 - 10) =     14.27117  eV     1   --> A''            

 **************************************************************************

 **************************************************************************

                    xk=(  -0.30000,   0.15000,   0.00000  )

     Band symmetry, C_s (m)     point group:

     e(  1 -  1) =     -5.38768  eV     1   --> A'             
     e(  2 -  2) =      3.67315  eV     1   --> A''            
     e(  3 -  3) =      4.64483  eV     1   --> A'             
     e(  4 -  4) =      5.47521  eV     1   --> A''            
     e(  5 -  5) =      8.38493  eV     1   --> A'             
     e(  6 -  6) =      9.47850  eV     1   --> A''            
     e(  7 -  7) =      9.96552  eV     1   --> A'             
     e(  8 -  8) =     11.01513  eV     1   --> A''            
     e(  9 -  9) =     12.73850  eV     1   --> A''            
     e( 10 - 10) =     14.08535  eV     1   --> A''            

 **************************************************************************

 **************************************************************************

                    xk=(  -0.26667,   0.13333,   0.00000  )

     Band symmetry, C_s (m)     point group:

     e(  1 -  1) =     -5.48878  eV     1   --> A'             
     e(  2 -  2) =      4.00756  eV     1   --> A''            
     e(  3 -  3) =      4.87099  eV     1   --> A'             
     e(  4 -  4) =      5.58742  eV     1   --> A''            
     e(  5 -  5) =      8.40511  eV     1   --> A'             
     e(  6 -  6) =      9.37200  eV     1   --> A''            
     e(  7 -  7) =      9.73796  eV     1   --> A'             
     e(  8 -  8) =     10.98583  eV     1   --> A''            
     e(  9 -  9) =     12.66786  eV     1   --> A''            
     e( 10 - 10) =     13.96956  eV     1   --> A''            

 **************************************************************************

 **************************************************************************

                    xk=(  -0.23333,   0.11667,   0.00000  )

     Band symmetry, C_s (m)     point group:

     e(  1 -  1) =     -5.57921  eV     1   --> A'             
     e(  2 -  2) =      4.34293  eV     1   --> A''            
     e(  3 -  3) =      5.09183  eV     1   --> A'             
     e(  4 -  4) =      5.68955  eV     1   --> A''            
     e(  5 -  5) =      8.43228  eV     1   --> A'             
     e(  6 -  6) =      9.26275  eV     1   --> A''            
     e(  7 -  7) =      9.52116  eV     1   --> A'             
     e(  8 -  8) =     10.82509  eV     1   --> A''            
     e(  9 -  9) =     12.71833  eV     1   --> A''            
     e( 10 - 10) =     13.89823  eV     1   --> A''            

 **************************************************************************

 **************************************************************************

                    xk=(  -0.20000,   0.10000,   0.00000  )

     Band symmetry, C_s (m)     point group:

     e(  1 -  1) =     -5.65772  eV     1   --> A'             
     e(  2 -  2) =      4.67664  eV     1   --> A''            
     e(  3 -  3) =      5.30427  eV     1   --> A'             
     e(  4 -  4) =      5.78121  eV     1   --> A''            
     e(  5 -  5) =      8.46412  eV     1   --> A'             
     e(  6 -  6) =      9.15357  eV     1   --> A''            
     e(  7 -  7) =      9.31805  eV     1   --> A'             
     e(  8 -  8) =     10.56949  eV     1   --> A''            
     e(  9 -  9) =     12.86781  eV     1   --> A''            
     e( 10 - 10) =     13.86241  eV     1   --> A''            

 **************************************************************************

 **************************************************************************

                    xk=(  -0.16667,   0.08333,   0.00000  )

     Band symmetry, C_s (m)     point group:

     e(  1 -  1) =     -5.72381  eV     1   --> A'             
     e(  2 -  2) =      5.00429  eV     1   --> A''            
     e(  3 -  3) =      5.50440  eV     1   --> A'             
     e(  4 -  4) =      5.86269  eV     1   --> A''            
     e(  5 -  5) =      8.50065  eV     1   --> A'             
     e(  6 -  6) =      9.04646  eV     1   --> A''            
     e(  7 -  7) =      9.13268  eV     1   --> A'             
     e(  8 -  8) =     10.27122  eV     1   --> A''            
     e(  9 -  9) =     13.07145  eV     1   --> A''            
     e( 10 - 10) =     13.84841  eV     1   --> A''            

 **************************************************************************

 **************************************************************************

                    xk=(  -0.13333,   0.06667,   0.00000  )

     Band symmetry, C_s (m)     point group:

     e(  1 -  1) =     -5.77868  eV     1   --> A'             
     e(  2 -  2) =      5.31668  eV     1   --> A''            
     e(  3 -  3) =      5.68438  eV     1   --> A'             
     e(  4 -  4) =      5.93191  eV     1   --> A''            
     e(  5 -  5) =      8.53623  eV     1   --> A'             
     e(  6 -  6) =      8.93978  eV     1   --> A''            
     e(  7 -  7) =      8.96514  eV     1   --> A'             
     e(  8 -  8) =      9.97157  eV     1   --> A''            
     e(  9 -  9) =     13.29165  eV     1   --> A''            
     e( 10 - 10) =     13.84181  eV     1   --> A''            

 **************************************************************************

 **************************************************************************

                    xk=(  -0.10000,   0.05000,   0.00000  )

     Band symmetry, C_s (m)     point group:

     e(  1 -  1) =     -5.82118  eV     1   --> A'             
     e(  2 -  2) =      5.60218  eV     1   --> A''            
     e(  3 -  3) =      5.83914  eV     1   --> A'             
     e(  4 -  4) =      5.98809  eV     1   --> A''            
     e(  5 -  5) =      8.56890  eV     1   --> A'             
     e(  6 -  6) =      8.82271  eV     1   --> A'             
     e(  7 -  7) =      8.83489  eV     1   --> A''            
     e(  8 -  8) =      9.70459  eV     1   --> A''            
     e(  9 -  9) =     13.50495  eV     1   --> A''            
     e( 10 - 10) =     13.84532  eV     1   --> A''            

 **************************************************************************

 **************************************************************************

                    xk=(  -0.06667,   0.03333,   0.00000  )

     Band symmetry, C_s (m)     point group:

     e(  1 -  1) =     -5.85157  eV     1   --> A'             
     e(  2 -  2) =      5.84047  eV     1   --> A''            
     e(  3 -  3) =      5.95982  eV     1   --> A'             
     e(  4 -  4) =      6.02964  eV     1   --> A''            
     e(  5 -  5) =      8.59532  eV     1   --> A'             
     e(  6 -  6) =      8.71297  eV     1   --> A'             
     e(  7 -  7) =      8.73279  eV     1   --> A''            
     e(  8 -  8) =      9.49861  eV     1   --> A''            
     e(  9 -  9) =     13.68633  eV     1   --> A''            
     e( 10 - 10) =     13.84871  eV     1   --> A''            

 **************************************************************************

 **************************************************************************

                    xk=(  -0.03333,   0.01667,   0.00000  )

     Band symmetry, C_s (m)     point group:

     e(  1 -  1) =     -5.86981  eV     1   --> A'             
     e(  2 -  2) =      6.00450  eV     1   --> A''            
     e(  3 -  3) =      6.03713  eV     1   --> A'             
     e(  4 -  4) =      6.05521  eV     1   --> A''            
     e(  5 -  5) =      8.61254  eV     1   --> A'             
     e(  6 -  6) =      8.64278  eV     1   --> A'             
     e(  7 -  7) =      8.65119  eV     1   --> A''            
     e(  8 -  8) =      9.37263  eV     1   --> A''            
     e(  9 -  9) =     13.78474  eV     1   --> A'             
     e( 10 - 10) =     13.81046  eV     1   --> A''            

 **************************************************************************

 **************************************************************************

                    xk=(   0.00000,   0.00000,   0.00000  )

     point group O_h (m-3m) 
     there are 10 classes
     the character table:

       E     8C3   3C2   6C4   6C2'  i     8S6   3s_h  6S4   6s_d 
A_1g   1.00  1.00  1.00  1.00  1.00  1.00  1.00  1.00  1.00  1.00
A_2g   1.00  1.00  1.00 -1.00 -1.00  1.00  1.00  1.00 -1.00 -1.00
E_g    2.00 -1.00  2.00  0.00  0.00  2.00 -1.00  2.00  0.00  0.00
T_1g   3.00  0.00 -1.00  1.00 -1.00  3.00  0.00 -1.00  1.00 -1.00
T_2g   3.00  0.00 -1.00 -1.00  1.00  3.00  0.00 -1.00 -1.00  1.00
A_1u   1.00  1.00  1.00  1.00  1.00 -1.00 -1.00 -1.00 -1.00 -1.00
A_2u   1.00  1.00  1.00 -1.00 -1.00 -1.00 -1.00 -1.00  1.00  1.00
E_u    2.00 -1.00  2.00  0.00  0.00 -2.00  1.00 -2.00  0.00  0.00
T_1u   3.00  0.00 -1.00  1.00 -1.00 -3.00  0.00  1.00 -1.00  1.00
T_2u   3.00  0.00 -1.00 -1.00  1.00 -3.00  0.00  1.00  1.00 -1.00

     the symmetry operations in each class and the name of the first element:

     E        1
                                                                 
     8C3     17   19   20   18   24   21   22   23
                                                                 
     3C2      2    4    3
                                                                 
     6C4      7    8   15   16   12   11
                                                                 
     6C2'     5    6   14   13   10    9
                                                                 
     i       25
                                                                 
     8S6     41   43   44   42   48   45   46   47
                                                                 
     3s_h    26   28   27
                                                                 
     6S4     31   32   39   40   36   35
                                                                 
     6s_d    29   30   38   37   34   33
                                                                 

     Band symmetry, O_h (m-3m)  point group:

     e(  1 -  1) =     -5.87590  eV     1   --> A_1g G_1   G_1+
     e(  2 -  4) =      6.06384  eV     3   --> T_2g G_25' G_5+
     e(  5 -  7) =      8.61853  eV     3   --> T_1u G_15  G_4-
     e(  8 -  8) =      9.33103  eV     1   --> A_2u G_2'  G_2-
     e(  9 -  9) =     13.75699  eV     1   --> A_1g G_1   G_1+
     e( 10 - 10) =     13.85478  eV     1   -->   ?

 **************************************************************************

 **************************************************************************

                    xk=(  -0.03333,   0.00000,   0.00000  )

     point group C_4v (4mm) 
     there are  5 classes
     the character table:

       E     2C4   C2    2s_v  2s_d 
A_1    1.00  1.00  1.00  1.00  1.00
A_2    1.00  1.00  1.00 -1.00 -1.00
B_1    1.00 -1.00  1.00  1.00 -1.00
B_2    1.00 -1.00  1.00 -1.00  1.00
E      2.00  0.00 -2.00  0.00  0.00

     the symmetry operations in each class and the name of the first element:

     E        1
                                                                 
     2C4      3    4
                                                                 
     C2       2
                                                                 
     2s_v     5    6
                                                                 
     2s_d     7    8
                                                                 

     Band symmetry, C_4v (4mm)  point group:

     e(  1 -  1) =     -5.87103  eV     1   --> A_1  G_1 D_1   
     e(  2 -  2) =      6.03029  eV     1   --> B_2  G_4 D_2'  
     e(  3 -  4) =      6.04250  eV     2   --> E    G_5 D_5   
     e(  5 -  5) =      8.60586  eV     1   --> A_1  G_1 D_1   
     e(  6 -  7) =      8.64576  eV     2   --> E    G_5 D_5   
     e(  8 -  8) =      9.36372  eV     1   --> B_2  G_4 D_2'  
     e(  9 -  9) =     13.77921  eV     1   --> A_1  G_1 D_1   
     e( 10 - 10) =     13.81257  eV     1   -->   ?

 **************************************************************************

 **************************************************************************

                    xk=(  -0.06667,   0.00000,   0.00000  )

     Band symmetry, C_4v (4mm)  point group:

     e(  1 -  1) =     -5.85643  eV     1   --> A_1  G_1 D_1   
     e(  2 -  2) =      5.93363  eV     1   --> B_2  G_4 D_2'  
     e(  3 -  4) =      5.98117  eV     2   --> E    G_5 D_5   
     e(  5 -  5) =      8.56857  eV     1   --> A_1  G_1 D_1   
     e(  6 -  7) =      8.72478  eV     2   --> E    G_5 D_5   
     e(  8 -  8) =      9.45722  eV     1   --> B_2  G_4 D_2'  
     e(  9 -  9) =     13.69268  eV     1   --> B_2  G_4 D_2'  
     e( 10 - 10) =     13.84511  eV     1   --> A_1  G_1 D_1   

 **************************************************************************

 **************************************************************************

                    xk=(  -0.10000,   0.00000,   0.00000  )

     Band symmetry, C_4v (4mm)  point group:

     e(  1 -  1) =     -5.83210  eV     1   --> A_1  G_1 D_1   
     e(  2 -  2) =      5.78386  eV     1   --> B_2  G_4 D_2'  
     e(  3 -  4) =      5.88662  eV     2   --> E    G_5 D_5   
     e(  5 -  5) =      8.50872  eV     1   --> A_1  G_1 D_1   
     e(  6 -  7) =      8.84876  eV     2   --> E    G_5 D_5   
     e(  8 -  8) =      9.59959  eV     1   --> B_2  G_4 D_2'  
     e(  9 -  9) =     13.51240  eV     1   --> B_2  G_4 D_2'  
     e( 10 - 10) =     13.90306  eV     1   --> A_2  G_2 D_1'  

 **************************************************************************

 **************************************************************************

                    xk=(  -0.13333,   0.00000,   0.00000  )

     Band symmetry, C_4v (4mm)  point group:

     e(  1 -  1) =     -5.79806  eV     1   --> A_1  G_1 D_1   
     e(  2 -  2) =      5.59328  eV     1   --> B_2  G_4 D_2'  
     e(  3 -  4) =      5.76752  eV     2   --> E    G_5 D_5   
     e(  5 -  5) =      8.42931  eV     1   --> A_1  G_1 D_1   
     e(  6 -  7) =      9.01011  eV     2   --> E    G_5 D_5   
     e(  8 -  8) =      9.77579  eV     1   --> B_2  G_4 D_2'  
     e(  9 -  9) =     13.29799  eV     1   --> B_2  G_4 D_2'  
     e( 10 - 10) =     13.94179  eV     1   --> A_2  G_2 D_1'  

 **************************************************************************

 **************************************************************************

                    xk=(  -0.16667,   0.00000,   0.00000  )

     Band symmetry, C_4v (4mm)  point group:

     e(  1 -  1) =     -5.75394  eV     1   --> A_1  G_1 D_1   
     e(  2 -  2) =      5.37216  eV     1   --> B_2  G_4 D_2'  
     e(  3 -  4) =      5.63160  eV     2   --> E    G_5 D_5   
     e(  5 -  5) =      8.33411  eV     1   --> A_1  G_1 D_1   
     e(  6 -  7) =      9.20015  eV     2   --> E    G_5 D_5   
     e(  8 -  8) =      9.96800  eV     1   --> B_2  G_4 D_2'  
     e(  9 -  9) =     13.06826  eV     1   --> B_2  G_4 D_2'  
     e( 10 - 10) =     13.99674  eV     1   --> A_2  G_2 D_1'  

 **************************************************************************

 **************************************************************************

                    xk=(  -0.20000,   0.00000,   0.00000  )

     Band symmetry, C_4v (4mm)  point group:

     e(  1 -  1) =     -5.70057  eV     1   --> A_1  G_1 D_1   
     e(  2 -  2) =      5.12867  eV     1   --> B_2  G_4 D_2'  
     e(  3 -  4) =      5.48400  eV     2   --> E    G_5 D_5   
     e(  5 -  5) =      8.22625  eV     1   --> A_1  G_1 D_1   
     e(  6 -  7) =      9.41183  eV     2   --> E    G_5 D_5   
     e(  8 -  8) =     10.15452  eV     1   --> B_2  G_4 D_2'  
     e(  9 -  9) =     12.84124  eV     1   --> B_2  G_4 D_2'  
     e( 10 - 10) =     14.05557  eV     1   --> A_2  G_2 D_1'  

 **************************************************************************

 **************************************************************************

                    xk=(  -0.23333,   0.00000,   0.00000  )

     Band symmetry, C_4v (4mm)  point group:

     e(  1 -  1) =     -5.63772  eV     1   --> A_1  G_1 D_1   
     e(  2 -  2) =      4.86926  eV     1   --> B_2  G_4 D_2'  
     e(  3 -  4) =      5.33059  eV     2   --> E    G_5 D_5   
     e(  5 -  5) =      8.10799  eV     1   --> A_1  G_1 D_1   
     e(  6 -  7) =      9.64105  eV     2   --> E    G_5 D_5   
     e(  8 -  8) =     10.31086  eV     1   --> B_2  G_4 D_2'  
     e(  9 -  9) =     12.65311  eV     1   --> B_2  G_4 D_2'  
     e( 10 - 10) =     14.12781  eV     1   --> A_2  G_2 D_1'  

 **************************************************************************

 **************************************************************************

                    xk=(  -0.26667,   0.00000,   0.00000  )

     Band symmetry, C_4v (4mm)  point group:

     e(  1 -  1) =     -5.56517  eV     1   --> A_1  G_1 D_1   
     e(  2 -  2) =      4.59873  eV     1   --> B_2  G_4 D_2'  
     e(  3 -  4) =      5.17434  eV     2   --> E    G_5 D_5   
     e(  5 -  5) =      7.98538  eV     1   --> A_1  G_1 D_1   
     e(  6 -  7) =      9.88394  eV     2   --> E    G_5 D_5   
     e(  8 -  8) =     10.40310  eV     1   --> B_2  G_4 D_2'  
     e(  9 -  9) =     12.53764  eV     1   --> B_2  G_4 D_2'  
     e( 10 - 10) =     14.20801  eV     1   --> A_2  G_2 D_1'  

 **************************************************************************

 **************************************************************************

                    xk=(  -0.30000,   0.00000,   0.00000  )

     Band symmetry, C_4v (4mm)  point group:

     e(  1 -  1) =     -5.48306  eV     1   --> A_1  G_1 D_1   
     e(  2 -  2) =      4.32001  eV     1   --> B_2  G_4 D_2'  
     e(  3 -  4) =      5.01813  eV     2   --> E    G_5 D_5   
     e(  5 -  5) =      7.85976  eV     1   --> A_1  G_1 D_1   
     e(  6 -  7) =     10.13789  eV     2   --> E    G_5 D_5   
     e(  8 -  8) =     10.40212  eV     1   --> B_2  G_4 D_2'  
     e(  9 -  9) =     12.52707  eV     1   --> B_2  G_4 D_2'  
     e( 10 - 10) =     14.29891  eV     1   --> A_2  G_2 D_1'  

 **************************************************************************

 **************************************************************************

                    xk=(  -0.33333,   0.00000,   0.00000  )

     Band symmetry, C_4v (4mm)  point group:

     e(  1 -  1) =     -5.39146  eV     1   --> A_1  G_1 D_1   
     e(  2 -  2) =      4.03531  eV     1   --> B_2  G_4 D_2'  
     e(  3 -  4) =      4.86389  eV     2   --> E    G_5 D_5   
     e(  5 -  5) =      7.73347  eV     1   --> A_1  G_1 D_1   
     e(  6 -  6) =     10.30282  eV     1   --> B_2  G_4 D_2'  
     e(  7 -  8) =     10.40083  eV     2   --> E    G_5 D_5   
     e(  9 -  9) =     12.62779  eV     1   --> B_2  G_4 D_2'  
     e( 10 - 10) =     14.40050  eV     1   --> A_2  G_2 D_1'  

 **************************************************************************

 **************************************************************************

                    xk=(  -0.36667,   0.00000,   0.00000  )

     Band symmetry, C_4v (4mm)  point group:

     e(  1 -  1) =     -5.29125  eV     1   --> A_1  G_1 D_1   
     e(  2 -  2) =      3.74581  eV     1   --> B_2  G_4 D_2'  
     e(  3 -  4) =      4.71291  eV     2   --> E    G_5 D_5   
     e(  5 -  5) =      7.60828  eV     1   --> A_1  G_1 D_1   
     e(  6 -  6) =     10.12766  eV     1   --> B_2  G_4 D_2'  
     e(  7 -  8) =     10.66940  eV     2   --> E    G_5 D_5   
     e(  9 -  9) =     12.81739  eV     1   --> B_2  G_4 D_2'  
     e( 10 - 10) =     14.51276  eV     1   --> A_2  G_2 D_1'  

 **************************************************************************

 **************************************************************************

                    xk=(  -0.40000,   0.00000,   0.00000  )

     Band symmetry, C_4v (4mm)  point group:

     e(  1 -  1) =     -5.18085  eV     1   --> A_1  G_1 D_1   
     e(  2 -  2) =      3.45350  eV     1   --> B_2  G_4 D_2'  
     e(  3 -  4) =      4.56663  eV     2   --> E    G_5 D_5   
     e(  5 -  5) =      7.48625  eV     1   --> A_1  G_1 D_1   
     e(  6 -  6) =      9.90676  eV     1   --> B_2  G_4 D_2'  
     e(  7 -  8) =     10.94588  eV     2   --> E    G_5 D_5   
     e(  9 -  9) =     13.06807  eV     1   --> B_2  G_4 D_2'  
     e( 10 - 10) =     14.63569  eV     1   --> A_2  G_2 D_1'  

 **************************************************************************

 **************************************************************************

                    xk=(  -0.43333,   0.00000,   0.00000  )

     Band symmetry, C_4v (4mm)  point group:

     e(  1 -  1) =     -5.06143  eV     1   --> A_1  G_1 D_1   
     e(  2 -  2) =      3.15802  eV     1   --> B_2  G_4 D_2'  
     e(  3 -  4) =      4.42564  eV     2   --> E    G_5 D_5   
     e(  5 -  5) =      7.36706  eV     1   --> A_1  G_1 D_1   
     e(  6 -  6) =      9.66106  eV     1   --> B_2  G_4 D_2'  
     e(  7 -  8) =     11.22663  eV     2   --> E    G_5 D_5   
     e(  9 -  9) =     13.35479  eV     1   --> B_2  G_4 D_2'  
     e( 10 - 10) =     14.76906  eV     1   --> A_2  G_2 D_1'  

 **************************************************************************

 **************************************************************************

                    xk=(  -0.46667,   0.00000,   0.00000  )

     Band symmetry, C_4v (4mm)  point group:

     e(  1 -  1) =     -4.93253  eV     1   --> A_1  G_1 D_1   
     e(  2 -  2) =      2.86160  eV     1   --> B_2  G_4 D_2'  
     e(  3 -  4) =      4.29073  eV     2   --> E    G_5 D_5   
     e(  5 -  5) =      7.25473  eV     1   --> A_1  G_1 D_1   
     e(  6 -  6) =      9.40751  eV     1   --> B_2  G_4 D_2'  
     e(  7 -  8) =     11.51272  eV     2   --> E    G_5 D_5   
     e(  9 -  9) =     13.66800  eV     1   --> B_2  G_4 D_2'  
     e( 10 - 10) =     14.91326  eV     1   --> A_2  G_2 D_1'  

 **************************************************************************

 **************************************************************************

                    xk=(  -0.50000,   0.00000,   0.00000  )

     Band symmetry, C_4v (4mm)  point group:

     e(  1 -  1) =     -4.79452  eV     1   --> A_1  G_1 D_1   
     e(  2 -  2) =      2.56407  eV     1   --> B_2  G_4 D_2'  
     e(  3 -  4) =      4.16238  eV     2   --> E    G_5 D_5   
     e(  5 -  5) =      7.14887  eV     1   --> A_1  G_1 D_1   
     e(  6 -  6) =      9.15345  eV     1   --> B_2  G_4 D_2'  
     e(  7 -  8) =     11.80270  eV     2   --> E    G_5 D_5   
     e(  9 -  9) =     13.99657  eV     1   --> B_2  G_4 D_2'  
     e( 10 - 10) =     15.06807  eV     1   --> A_2  G_2 D_1'  

 **************************************************************************

 **************************************************************************

                    xk=(  -0.53333,   0.00000,   0.00000  )

     Band symmetry, C_4v (4mm)  point group:

     e(  1 -  1) =     -4.64750  eV     1   --> A_1  G_1 D_1   
     e(  2 -  2) =      2.26593  eV     1   --> B_2  G_4 D_2'  
     e(  3 -  4) =      4.04100  eV     2   --> E    G_5 D_5   
     e(  5 -  5) =      7.05031  eV     1   --> A_1  G_1 D_1   
     e(  6 -  6) =      8.90422  eV     1   --> B_2  G_4 D_2'  
     e(  7 -  8) =     12.09608  eV     2   --> E    G_5 D_5   
     e(  9 -  9) =     14.33488  eV     1   --> B_2  G_4 D_2'  
     e( 10 - 10) =     15.23347  eV     1   --> A_2  G_2 D_1'  

 **************************************************************************

 **************************************************************************

                    xk=(  -0.56667,   0.00000,   0.00000  )

     Band symmetry, C_4v (4mm)  point group:

     e(  1 -  1) =     -4.49157  eV     1   --> A_1  G_1 D_1   
     e(  2 -  2) =      1.96764  eV     1   --> B_2  G_4 D_2'  
     e(  3 -  4) =      3.92694  eV     2   --> E    G_5 D_5   
     e(  5 -  5) =      6.95978  eV     1   --> A_1  G_1 D_1   
     e(  6 -  6) =      8.66321  eV     1   --> B_2  G_4 D_2'  
     e(  7 -  8) =     12.39251  eV     2   --> E    G_5 D_5   
     e(  9 -  9) =     14.67910  eV     1   --> B_2  G_4 D_2'  
     e( 10 - 10) =     15.40945  eV     1   --> A_2  G_2 D_1'  

 **************************************************************************

 **************************************************************************

                    xk=(  -0.60000,   0.00000,   0.00000  )

     Band symmetry, C_4v (4mm)  point group:

     e(  1 -  1) =     -4.32686  eV     1   --> A_1  G_1 D_1   
     e(  2 -  2) =      1.66962  eV     1   --> B_2  G_4 D_2'  
     e(  3 -  4) =      3.82050  eV     2   --> E    G_5 D_5   
     e(  5 -  5) =      6.87788  eV     1   --> A_1  G_1 D_1   
     e(  6 -  6) =      8.43267  eV     1   --> B_2  G_4 D_2'  
     e(  7 -  8) =     12.69169  eV     2   --> E    G_5 D_5   
     e(  9 -  9) =     15.02642  eV     1   --> B_2  G_4 D_2'  
     e( 10 - 10) =     15.59598  eV     1   --> A_2  G_2 D_1'  

 **************************************************************************

 **************************************************************************

                    xk=(  -0.63333,   0.00000,   0.00000  )

     Band symmetry, C_4v (4mm)  point group:

     e(  1 -  1) =     -4.15315  eV     1   --> A_1  G_1 D_1   
     e(  2 -  2) =      1.37052  eV     1   --> B_2  G_4 D_2'  
     e(  3 -  4) =      3.72230  eV     2   --> E    G_5 D_5   
     e(  5 -  5) =      6.80316  eV     1   --> A_1  G_1 D_1   
     e(  6 -  6) =      8.21392  eV     1   --> B_2  G_4 D_2'  
     e(  7 -  8) =     12.98646  eV     2   --> E    G_5 D_5   
     e(  9 -  9) =     15.37520  eV     1   --> B_2  G_4 D_2'  
     e( 10 - 10) =     15.79199  eV     1   --> A_2  G_2 D_1'  

 **************************************************************************

 **************************************************************************

                    xk=(  -0.66667,   0.00000,   0.00000  )

     Band symmetry, C_4v (4mm)  point group:

     e(  1 -  1) =     -3.97136  eV     1   --> A_1  G_1 D_1   
     e(  2 -  2) =      1.07429  eV     1   --> B_2  G_4 D_2'  
     e(  3 -  4) =      3.63171  eV     2   --> E    G_5 D_5   
     e(  5 -  5) =      6.74008  eV     1   --> A_1  G_1 D_1   
     e(  6 -  6) =      8.00822  eV     1   --> B_2  G_4 D_2'  
     e(  7 -  8) =     13.29022  eV     2   --> E    G_5 D_5   
     e(  9 -  9) =     15.72264  eV     1   --> B_2  G_4 D_2'  
     e( 10 - 10) =     15.99950  eV     1   --> A_2  G_2 D_1'  

 **************************************************************************

 **************************************************************************

                    xk=(  -0.70000,   0.00000,   0.00000  )

     Band symmetry, C_4v (4mm)  point group:

     e(  1 -  1) =     -3.78127  eV     1   --> A_1  G_1 D_1   
     e(  2 -  2) =      0.77964  eV     1   --> B_2  G_4 D_2'  
     e(  3 -  4) =      3.54934  eV     2   --> E    G_5 D_5   
     e(  5 -  5) =      6.68612  eV     1   --> A_1  G_1 D_1   
     e(  6 -  6) =      7.81610  eV     1   --> B_2  G_4 D_2'  
     e(  7 -  8) =     13.59612  eV     2   --> E    G_5 D_5   
     e(  9 -  9) =     16.06783  eV     1   --> B_2  G_4 D_2'  
     e( 10 - 10) =     16.21747  eV     1   --> A_2  G_2 D_1'  

 **************************************************************************

 **************************************************************************

                    xk=(  -0.73333,   0.00000,   0.00000  )

     Band symmetry, C_4v (4mm)  point group:

     e(  1 -  1) =     -3.58300  eV     1   --> A_1  G_1 D_1   
     e(  2 -  2) =      0.48701  eV     1   --> B_2  G_4 D_2'  
     e(  3 -  4) =      3.47532  eV     2   --> E    G_5 D_5   
     e(  5 -  5) =      6.64357  eV     1   --> A_1  G_1 D_1   
     e(  6 -  6) =      7.63796  eV     1   --> B_2  G_4 D_2'  
     e(  7 -  8) =     13.90391  eV     2   --> E    G_5 D_5   
     e(  9 -  9) =     16.40948  eV     1   --> B_2  G_4 D_2'  
     e( 10 - 10) =     16.44586  eV     1   --> A_2  G_2 D_1'  

 **************************************************************************

 **************************************************************************

                    xk=(  -0.76667,   0.00000,   0.00000  )

     Band symmetry, C_4v (4mm)  point group:

     e(  1 -  1) =     -3.37676  eV     1   --> A_1  G_1 D_1   
     e(  2 -  2) =      0.19686  eV     1   --> B_2  G_4 D_2'  
     e(  3 -  4) =      3.40984  eV     2   --> E    G_5 D_5   
     e(  5 -  5) =      6.61193  eV     1   --> A_1  G_1 D_1   
     e(  6 -  6) =      7.47719  eV     1   --> B_2  G_4 D_2'  
     e(  7 -  8) =     14.21440  eV     2   --> E    G_5 D_5   
     e(  9 -  9) =     16.68465  eV     1   --> A_2  G_2 D_1'  
     e( 10 - 10) =     16.74648  eV     1   --> B_2  G_4 D_2'  

 **************************************************************************

 **************************************************************************

                    xk=(  -0.80000,   0.00000,   0.00000  )

     Band symmetry, C_4v (4mm)  point group:

     e(  1 -  1) =     -3.16277  eV     1   --> A_1  G_1 D_1   
     e(  2 -  2) =     -0.09040  eV     1   --> B_2  G_4 D_2'  
     e(  3 -  4) =      3.35285  eV     2   --> E    G_5 D_5   
     e(  5 -  5) =      6.59145  eV     1   --> A_1  G_1 D_1   
     e(  6 -  6) =      7.32733  eV     1   --> B_2  G_4 D_2'  
     e(  7 -  8) =     14.52469  eV     2   --> E    G_5 D_5   
     e(  9 -  9) =     16.93378  eV     1   --> A_2  G_2 D_1'  
     e( 10 - 10) =     17.07751  eV     1   --> B_2  G_4 D_2'  

 **************************************************************************

 **************************************************************************

                    xk=(  -0.83333,   0.00000,   0.00000  )

     Band symmetry, C_4v (4mm)  point group:

     e(  1 -  1) =     -2.93985  eV     1   --> A_1  G_1 D_1   
     e(  2 -  2) =     -0.37347  eV     1   --> B_2  G_4 D_2'  
     e(  3 -  4) =      3.30534  eV     2   --> E    G_5 D_5   
     e(  5 -  5) =      6.58332  eV     1   --> A_1  G_1 D_1   
     e(  6 -  6) =      7.19252  eV     1   --> B_2  G_4 D_2'  
     e(  7 -  8) =     14.83527  eV     2   --> E    G_5 D_5   
     e(  9 -  9) =     17.20893  eV     1   --> A_2  G_2 D_1'  
     e( 10 - 10) =     17.40242  eV     1   --> B_2  G_4 D_2'  

 **************************************************************************

 **************************************************************************

                    xk=(  -0.86667,   0.00000,   0.00000  )

     Band symmetry, C_4v (4mm)  point group:

     e(  1 -  1) =     -2.71198  eV     1   --> A_1  G_1 D_1   
     e(  2 -  2) =     -0.65402  eV     1   --> B_2  G_4 D_2'  
     e(  3 -  4) =      3.26543  eV     2   --> E    G_5 D_5   
     e(  5 -  5) =      6.58605  eV     1   --> A_1  G_1 D_1   
     e(  6 -  6) =      7.06860  eV     1   --> B_2  G_4 D_2'  
     e(  7 -  8) =     15.14278  eV     2   --> E    G_5 D_5   
     e(  9 -  9) =     17.47867  eV     1   --> A_2  G_2 D_1'  
     e( 10 - 10) =     17.71554  eV     1   --> B_2  G_4 D_2'  

 **************************************************************************

 **************************************************************************

                    xk=(  -0.90000,   0.00000,   0.00000  )

     Band symmetry, C_4v (4mm)  point group:

     e(  1 -  1) =     -2.47617  eV     1   --> A_1  G_1 D_1   
     e(  2 -  2) =     -0.92989  eV     1   --> B_2  G_4 D_2'  
     e(  3 -  4) =      3.23452  eV     2   --> E    G_5 D_5   
     e(  5 -  5) =      6.60104  eV     1   --> A_1  G_1 D_1   
     e(  6 -  6) =      6.96128  eV     1   --> B_2  G_4 D_2'  
     e(  7 -  8) =     15.44395  eV     2   --> E    G_5 D_5   
     e(  9 - 10) =     17.67809  eV     2   --> E    G_5 D_5   

 **************************************************************************

 **************************************************************************

                    xk=(  -0.93333,   0.00000,   0.00000  )

     Band symmetry, C_4v (4mm)  point group:

     e(  1 -  1) =     -2.23361  eV     1   --> A_1  G_1 D_1   
     e(  2 -  2) =     -1.20112  eV     1   --> B_2  G_4 D_2'  
     e(  3 -  4) =      3.21242  eV     2   --> E    G_5 D_5   
     e(  5 -  5) =      6.62845  eV     1   --> A_1  G_1 D_1   
     e(  6 -  6) =      6.86786  eV     1   --> B_2  G_4 D_2'  
     e(  7 -  8) =     15.72725  eV     2   --> E    G_5 D_5   
     e(  9 - 10) =     17.38832  eV     2   --> E    G_5 D_5   

 **************************************************************************

 **************************************************************************

                    xk=(  -0.96667,   0.00000,   0.00000  )

     Band symmetry, C_4v (4mm)  point group:

     e(  1 -  1) =     -1.98411  eV     1   --> A_1  G_1 D_1   
     e(  2 -  2) =     -1.46727  eV     1   --> B_2  G_4 D_2'  
     e(  3 -  4) =      3.19922  eV     2   --> E    G_5 D_5   
     e(  5 -  5) =      6.66905  eV     1   --> A_1  G_1 D_1   
     e(  6 -  6) =      6.78946  eV     1   --> B_2  G_4 D_2'  
     e(  7 -  8) =     15.96182  eV     2   --> E    G_5 D_5   
     e(  9 - 10) =     17.15799  eV     2   --> E    G_5 D_5   

 **************************************************************************

 **************************************************************************

                    xk=(  -1.00000,   0.00000,   0.00000  )

     zone border point and non-symmorphic group 
     symmetry decomposition not available

 **************************************************************************

 **************************************************************************

                    xk=(  -1.00000,   0.01667,   0.00000  )

     zone border point and non-symmorphic group 
     symmetry decomposition not available

 **************************************************************************

 **************************************************************************

                    xk=(  -1.00000,   0.03333,   0.00000  )

     zone border point and non-symmorphic group 
     symmetry decomposition not available

 **************************************************************************

 **************************************************************************

                    xk=(  -1.00000,   0.05000,   0.00000  )

     zone border point and non-symmorphic group 
     symmetry decomposition not available

 **************************************************************************

 **************************************************************************

                    xk=(  -1.00000,   0.06667,   0.00000  )

     zone border point and non-symmorphic group 
     symmetry decomposition not available

 **************************************************************************

 **************************************************************************

                    xk=(  -1.00000,   0.08333,   0.00000  )

     zone border point and non-symmorphic group 
     symmetry decomposition not available

 **************************************************************************

 **************************************************************************

                    xk=(  -1.00000,   0.10000,   0.00000  )

     zone border point and non-symmorphic group 
     symmetry decomposition not available

 **************************************************************************

 **************************************************************************

                    xk=(  -1.00000,   0.11667,   0.00000  )

     zone border point and non-symmorphic group 
     symmetry decomposition not available

 **************************************************************************

 **************************************************************************

                    xk=(  -1.00000,   0.13333,   0.00000  )

     zone border point and non-symmorphic group 
     symmetry decomposition not available

 **************************************************************************

 **************************************************************************

                    xk=(  -1.00000,   0.15000,   0.00000  )

     zone border point and non-symmorphic group 
     symmetry decomposition not available

 **************************************************************************

 **************************************************************************

                    xk=(  -1.00000,   0.16667,   0.00000  )

     zone border point and non-symmorphic group 
     symmetry decomposition not available

 **************************************************************************

 **************************************************************************

                    xk=(  -1.00000,   0.18333,   0.00000  )

     zone border point and non-symmorphic group 
     symmetry decomposition not available

 **************************************************************************

 **************************************************************************

                    xk=(  -1.00000,   0.20000,   0.00000  )

     zone border point and non-symmorphic group 
     symmetry decomposition not available

 **************************************************************************

 **************************************************************************

                    xk=(  -1.00000,   0.21667,   0.00000  )

     zone border point and non-symmorphic group 
     symmetry decomposition not available

 **************************************************************************

 **************************************************************************

                    xk=(  -1.00000,   0.23333,   0.00000  )

     zone border point and non-symmorphic group 
     symmetry decomposition not available

 **************************************************************************

 **************************************************************************

                    xk=(  -1.00000,   0.25000,   0.00000  )

     zone border point and non-symmorphic group 
     symmetry decomposition not available

 **************************************************************************

 **************************************************************************

                    xk=(  -1.00000,   0.26667,   0.00000  )

     zone border point and non-symmorphic group 
     symmetry decomposition not available

 **************************************************************************

 **************************************************************************

                    xk=(  -1.00000,   0.28333,   0.00000  )

     zone border point and non-symmorphic group 
     symmetry decomposition not available

 **************************************************************************

 **************************************************************************

                    xk=(  -1.00000,   0.30000,   0.00000  )

     zone border point and non-symmorphic group 
     symmetry decomposition not available

 **************************************************************************

 **************************************************************************

                    xk=(  -1.00000,   0.31667,   0.00000  )

     zone border point and non-symmorphic group 
     symmetry decomposition not available

 **************************************************************************

 **************************************************************************

                    xk=(  -1.00000,   0.33333,   0.00000  )

     zone border point and non-symmorphic group 
     symmetry decomposition not available

 **************************************************************************

 **************************************************************************

                    xk=(  -1.00000,   0.35000,   0.00000  )

     zone border point and non-symmorphic group 
     symmetry decomposition not available

 **************************************************************************

 **************************************************************************

                    xk=(  -1.00000,   0.36667,   0.00000  )

     zone border point and non-symmorphic group 
     symmetry decomposition not available

 **************************************************************************

 **************************************************************************

                    xk=(  -1.00000,   0.38333,   0.00000  )

     zone border point and non-symmorphic group 
     symmetry decomposition not available

 **************************************************************************

 **************************************************************************

                    xk=(  -1.00000,   0.40000,   0.00000  )

     zone border point and non-symmorphic group 
     symmetry decomposition not available

 **************************************************************************

 **************************************************************************

                    xk=(  -1.00000,   0.41667,   0.00000  )

     zone border point and non-symmorphic group 
     symmetry decomposition not available

 **************************************************************************

 **************************************************************************

                    xk=(  -1.00000,   0.43333,   0.00000  )

     zone border point and non-symmorphic group 
     symmetry decomposition not available

 **************************************************************************

 **************************************************************************

                    xk=(  -1.00000,   0.45000,   0.00000  )

     zone border point and non-symmorphic group 
     symmetry decomposition not available

 **************************************************************************

 **************************************************************************

                    xk=(  -1.00000,   0.46667,   0.00000  )

     zone border point and non-symmorphic group 
     symmetry decomposition not available

 **************************************************************************

 **************************************************************************

                    xk=(  -1.00000,   0.48333,   0.00000  )

     zone border point and non-symmorphic group 
     symmetry decomposition not available

 **************************************************************************

 **************************************************************************

                    xk=(  -1.00000,   0.50000,   0.00000  )

     zone border point and non-symmorphic group 
     symmetry decomposition not available

 **************************************************************************

 **************************************************************************

                    xk=(  -0.98333,   0.50000,   0.01667  )

     zone border point and non-symmorphic group 
     symmetry decomposition not available

 **************************************************************************

 **************************************************************************

                    xk=(  -0.96667,   0.50000,   0.03333  )

     zone border point and non-symmorphic group 
     symmetry decomposition not available

 **************************************************************************

 **************************************************************************

                    xk=(  -0.95000,   0.50000,   0.05000  )

     zone border point and non-symmorphic group 
     symmetry decomposition not available

 **************************************************************************

 **************************************************************************

                    xk=(  -0.93333,   0.50000,   0.06667  )

     zone border point and non-symmorphic group 
     symmetry decomposition not available

 **************************************************************************

 **************************************************************************

                    xk=(  -0.91667,   0.50000,   0.08333  )

     zone border point and non-symmorphic group 
     symmetry decomposition not available

 **************************************************************************

 **************************************************************************

                    xk=(  -0.90000,   0.50000,   0.10000  )

     zone border point and non-symmorphic group 
     symmetry decomposition not available

 **************************************************************************

 **************************************************************************

                    xk=(  -0.88333,   0.50000,   0.11667  )

     zone border point and non-symmorphic group 
     symmetry decomposition not available

 **************************************************************************

 **************************************************************************

                    xk=(  -0.86667,   0.50000,   0.13333  )

     zone border point and non-symmorphic group 
     symmetry decomposition not available

 **************************************************************************

 **************************************************************************

                    xk=(  -0.85000,   0.50000,   0.15000  )

     zone border point and non-symmorphic group 
     symmetry decomposition not available

 **************************************************************************

 **************************************************************************

                    xk=(  -0.83333,   0.50000,   0.16667  )

     zone border point and non-symmorphic group 
     symmetry decomposition not available

 **************************************************************************

 **************************************************************************

                    xk=(  -0.81667,   0.50000,   0.18333  )

     zone border point and non-symmorphic group 
     symmetry decomposition not available

 **************************************************************************

 **************************************************************************

                    xk=(  -0.80000,   0.50000,   0.20000  )

     zone border point and non-symmorphic group 
     symmetry decomposition not available

 **************************************************************************

 **************************************************************************

                    xk=(  -0.78333,   0.50000,   0.21667  )

     zone border point and non-symmorphic group 
     symmetry decomposition not available

 **************************************************************************

 **************************************************************************

                    xk=(  -0.76667,   0.50000,   0.23333  )

     zone border point and non-symmorphic group 
     symmetry decomposition not available

 **************************************************************************

 **************************************************************************

                    xk=(  -0.75000,   0.50000,   0.25000  )

     zone border point and non-symmorphic group 
     symmetry decomposition not available

 **************************************************************************

 **************************************************************************

                    xk=(  -0.73333,   0.50000,   0.26667  )

     zone border point and non-symmorphic group 
     symmetry decomposition not available

 **************************************************************************

 **************************************************************************

                    xk=(  -0.71667,   0.50000,   0.28333  )

     zone border point and non-symmorphic group 
     symmetry decomposition not available

 **************************************************************************

 **************************************************************************

                    xk=(  -0.70000,   0.50000,   0.30000  )

     zone border point and non-symmorphic group 
     symmetry decomposition not available

 **************************************************************************

 **************************************************************************

                    xk=(  -0.68333,   0.50000,   0.31667  )

     zone border point and non-symmorphic group 
     symmetry decomposition not available

 **************************************************************************

 **************************************************************************

                    xk=(  -0.66667,   0.50000,   0.33333  )

     zone border point and non-symmorphic group 
     symmetry decomposition not available

 **************************************************************************

 **************************************************************************

                    xk=(  -0.65000,   0.50000,   0.35000  )

     zone border point and non-symmorphic group 
     symmetry decomposition not available

 **************************************************************************

 **************************************************************************

                    xk=(  -0.63333,   0.50000,   0.36667  )

     zone border point and non-symmorphic group 
     symmetry decomposition not available

 **************************************************************************

 **************************************************************************

                    xk=(  -0.61667,   0.50000,   0.38333  )

     zone border point and non-symmorphic group 
     symmetry decomposition not available

 **************************************************************************

 **************************************************************************

                    xk=(  -0.60000,   0.50000,   0.40000  )

     zone border point and non-symmorphic group 
     symmetry decomposition not available

 **************************************************************************

 **************************************************************************

                    xk=(  -0.58333,   0.50000,   0.41667  )

     zone border point and non-symmorphic group 
     symmetry decomposition not available

 **************************************************************************

 **************************************************************************

                    xk=(  -0.56667,   0.50000,   0.43333  )

     zone border point and non-symmorphic group 
     symmetry decomposition not available

 **************************************************************************

 **************************************************************************

                    xk=(  -0.55000,   0.50000,   0.45000  )

     zone border point and non-symmorphic group 
     symmetry decomposition not available

 **************************************************************************

 **************************************************************************

                    xk=(  -0.53333,   0.50000,   0.46667  )

     zone border point and non-symmorphic group 
     symmetry decomposition not available

 **************************************************************************

 **************************************************************************

                    xk=(  -0.51667,   0.50000,   0.48333  )

     zone border point and non-symmorphic group 
     symmetry decomposition not available

 **************************************************************************

 **************************************************************************

                    xk=(  -0.50000,   0.50000,   0.50000  )

     zone border point and non-symmorphic group 
     symmetry decomposition not available

 **************************************************************************

 **************************************************************************

                    xk=(  -0.48333,   0.48333,   0.48333  )

     point group C_3v (3m)  
     there are  3 classes
     the character table:

       E     2C3   3s_v 
A_1    1.00  1.00  1.00
A_2    1.00  1.00 -1.00
E      2.00 -1.00  0.00

     the symmetry operations in each class and the name of the first element:

     E        1
                                                                 
     2C3      2    3
                                                                 
     3s_v     4    5    6
                                                                 

     Band symmetry, C_3v (3m)   point group:

     e(  1 -  1) =     -3.54733  eV     1   --> A_1  L_1       
     e(  2 -  2) =     -0.90169  eV     1   --> A_1  L_1       
     e(  3 -  4) =      4.85942  eV     2   --> E    L_3       
     e(  5 -  5) =      7.56240  eV     1   --> A_1  L_1       
     e(  6 -  7) =      9.40753  eV     2   --> E    L_3       
     e(  8 -  8) =     13.61905  eV     1   --> A_1  L_1       
     e(  9 - 10) =     16.50256  eV     2   --> E    L_3       

 **************************************************************************

 **************************************************************************

                    xk=(  -0.46667,   0.46667,   0.46667  )

     Band symmetry, C_3v (3m)   point group:

     e(  1 -  1) =     -3.59443  eV     1   --> A_1  L_1       
     e(  2 -  2) =     -0.83394  eV     1   --> A_1  L_1       
     e(  3 -  4) =      4.86545  eV     2   --> E    L_3       
     e(  5 -  5) =      7.56922  eV     1   --> A_1  L_1       
     e(  6 -  7) =      9.41438  eV     2   --> E    L_3       
     e(  8 -  8) =     13.62988  eV     1   --> A_1  L_1       
     e(  9 - 10) =     16.23534  eV     2   --> E    L_3       

 **************************************************************************

 **************************************************************************

                    xk=(  -0.45000,   0.45000,   0.45000  )

     Band symmetry, C_3v (3m)   point group:

     e(  1 -  1) =     -3.66788  eV     1   --> A_1  L_1       
     e(  2 -  2) =     -0.72610  eV     1   --> A_1  L_1       
     e(  3 -  4) =      4.87549  eV     2   --> E    L_3       
     e(  5 -  5) =      7.58057  eV     1   --> A_1  L_1       
     e(  6 -  7) =      9.42555  eV     2   --> E    L_3       
     e(  8 -  8) =     13.64749  eV     1   --> A_1  L_1       
     e(  9 - 10) =     15.93929  eV     2   --> E    L_3       

 **************************************************************************

 **************************************************************************

                    xk=(  -0.43333,   0.43333,   0.43333  )

     Band symmetry, C_3v (3m)   point group:

     e(  1 -  1) =     -3.76178  eV     1   --> A_1  L_1       
     e(  2 -  2) =     -0.58408  eV     1   --> A_1  L_1       
     e(  3 -  4) =      4.88988  eV     2   --> E    L_3       
     e(  5 -  5) =      7.59240  eV     1   --> A_1  L_1       
     e(  6 -  7) =      9.44081  eV     2   --> E    L_3       
     e(  8 -  8) =     13.67069  eV     1   --> A_1  L_1       
     e(  9 - 10) =     15.64343  eV     2   --> E    L_3       

 **************************************************************************

 **************************************************************************

                    xk=(  -0.41667,   0.41667,   0.41667  )

     Band symmetry, C_3v (3m)   point group:

     e(  1 -  1) =     -3.87074  eV     1   --> A_1  L_1       
     e(  2 -  2) =     -0.41343  eV     1   --> A_1  L_1       
     e(  3 -  4) =      4.90791  eV     2   --> E    L_3       
     e(  5 -  5) =      7.61266  eV     1   --> A_1  L_1       
     e(  6 -  7) =      9.45936  eV     2   --> E    L_3       
     e(  8 -  8) =     13.69923  eV     1   --> A_1  L_1       
     e(  9 - 10) =     15.35032  eV     2   --> E    L_3       

 **************************************************************************

 **************************************************************************

                    xk=(  -0.40000,   0.40000,   0.40000  )

     Band symmetry, C_3v (3m)   point group:

     e(  1 -  1) =     -3.98956  eV     1   --> A_1  L_1       
     e(  2 -  2) =     -0.21933  eV     1   --> A_1  L_1       
     e(  3 -  4) =      4.92992  eV     2   --> E    L_3       
     e(  5 -  5) =      7.63738  eV     1   --> A_1  L_1       
     e(  6 -  7) =      9.48057  eV     2   --> E    L_3       
     e(  8 -  8) =     13.73056  eV     1   --> A_1  L_1       
     e(  9 - 10) =     15.06687  eV     2   --> E    L_3       

 **************************************************************************

 **************************************************************************

                    xk=(  -0.38333,   0.38333,   0.38333  )

     Band symmetry, C_3v (3m)   point group:

     e(  1 -  1) =     -4.11337  eV     1   --> A_1  L_1       
     e(  2 -  2) =     -0.00563  eV     1   --> A_1  L_1       
     e(  3 -  4) =      4.95640  eV     2   --> E    L_3       
     e(  5 -  5) =      7.66651  eV     1   --> A_1  L_1       
     e(  6 -  7) =      9.50386  eV     2   --> E    L_3       
     e(  8 -  8) =     13.76173  eV     1   --> A_1  L_1       
     e(  9 - 10) =     14.79812  eV     2   --> E    L_3       

 **************************************************************************

 **************************************************************************

                    xk=(  -0.36667,   0.36667,   0.36667  )

     Band symmetry, C_3v (3m)   point group:

     e(  1 -  1) =     -4.24094  eV     1   --> A_1  L_1       
     e(  2 -  2) =      0.22409  eV     1   --> A_1  L_1       
     e(  3 -  4) =      4.98633  eV     2   --> E    L_3       
     e(  5 -  5) =      7.69997  eV     1   --> A_1  L_1       
     e(  6 -  7) =      9.52739  eV     2   --> E    L_3       
     e(  8 -  8) =     13.78583  eV     1   --> A_1  L_1       
     e(  9 - 10) =     14.54062  eV     2   --> E    L_3       

 **************************************************************************

 **************************************************************************

                    xk=(  -0.35000,   0.35000,   0.35000  )

     Band symmetry, C_3v (3m)   point group:

     e(  1 -  1) =     -4.36903  eV     1   --> A_1  L_1       
     e(  2 -  2) =      0.46758  eV     1   --> A_1  L_1       
     e(  3 -  4) =      5.02016  eV     2   --> E    L_3       
     e(  5 -  5) =      7.73770  eV     1   --> A_1  L_1       
     e(  6 -  7) =      9.55010  eV     2   --> E    L_3       
     e(  8 -  8) =     13.79305  eV     1   --> A_1  L_1       
     e(  9 - 10) =     14.29903  eV     2   --> E    L_3       

 **************************************************************************

 **************************************************************************

                    xk=(  -0.33333,   0.33333,   0.33333  )

     Band symmetry, C_3v (3m)   point group:

     e(  1 -  1) =     -4.49589  eV     1   --> A_1  L_1       
     e(  2 -  2) =      0.72295  eV     1   --> A_1  L_1       
     e(  3 -  4) =      5.05783  eV     2   --> E    L_3       
     e(  5 -  5) =      7.77959  eV     1   --> A_1  L_1       
     e(  6 -  7) =      9.57036  eV     2   --> E    L_3       
     e(  8 -  8) =     13.76659  eV     1   --> A_1  L_1       
     e(  9 - 10) =     14.07531  eV     2   --> E    L_3       

 **************************************************************************

 **************************************************************************

                    xk=(  -0.31667,   0.31667,   0.31667  )

     Band symmetry, C_3v (3m)   point group:

     e(  1 -  1) =     -4.62005  eV     1   --> A_1  L_1       
     e(  2 -  2) =      0.98886  eV     1   --> A_1  L_1       
     e(  3 -  4) =      5.09946  eV     2   --> E    L_3       
     e(  5 -  5) =      7.82626  eV     1   --> A_1  L_1       
     e(  6 -  7) =      9.58736  eV     2   --> E    L_3       
     e(  8 -  8) =     13.68611  eV     1   --> A_1  L_1       
     e(  9 - 10) =     13.87225  eV     2   --> E    L_3       

 **************************************************************************

 **************************************************************************

                    xk=(  -0.30000,   0.30000,   0.30000  )

     Band symmetry, C_3v (3m)   point group:

     e(  1 -  1) =     -4.74083  eV     1   --> A_1  L_1       
     e(  2 -  2) =      1.26374  eV     1   --> A_1  L_1       
     e(  3 -  4) =      5.14455  eV     2   --> E    L_3       
     e(  5 -  5) =      7.87599  eV     1   --> A_1  L_1       
     e(  6 -  7) =      9.59680  eV     2   --> E    L_3       
     e(  8 -  8) =     13.54030  eV     1   --> A_1  L_1       
     e(  9 - 10) =     13.69066  eV     2   --> E    L_3       

 **************************************************************************

 **************************************************************************

                    xk=(  -0.28333,   0.28333,   0.28333  )

     Band symmetry, C_3v (3m)   point group:

     e(  1 -  1) =     -4.85729  eV     1   --> A_1  L_1       
     e(  2 -  2) =      1.54674  eV     1   --> A_1  L_1       
     e(  3 -  4) =      5.19318  eV     2   --> E    L_3       
     e(  5 -  5) =      7.92937  eV     1   --> A_1  L_1       
     e(  6 -  7) =      9.59774  eV     2   --> E    L_3       
     e(  8 -  8) =     13.33854  eV     1   --> A_1  L_1       
     e(  9 - 10) =     13.53335  eV     2   --> E    L_3       

 **************************************************************************

 **************************************************************************

                    xk=(  -0.26667,   0.26667,   0.26667  )

     Band symmetry, C_3v (3m)   point group:

     e(  1 -  1) =     -4.96884  eV     1   --> A_1  L_1       
     e(  2 -  2) =      1.83673  eV     1   --> A_1  L_1       
     e(  3 -  4) =      5.24433  eV     2   --> E    L_3       
     e(  5 -  5) =      7.98597  eV     1   --> A_1  L_1       
     e(  6 -  7) =      9.58538  eV     2   --> E    L_3       
     e(  8 -  8) =     13.09856  eV     1   --> A_1  L_1       
     e(  9 - 10) =     13.40083  eV     2   --> E    L_3       

 **************************************************************************

 **************************************************************************

                    xk=(  -0.25000,   0.25000,   0.25000  )

     Band symmetry, C_3v (3m)   point group:

     e(  1 -  1) =     -5.07482  eV     1   --> A_1  L_1       
     e(  2 -  2) =      2.13399  eV     1   --> A_1  L_1       
     e(  3 -  4) =      5.29961  eV     2   --> E    L_3       
     e(  5 -  5) =      8.04583  eV     1   --> A_1  L_1       
     e(  6 -  7) =      9.56413  eV     2   --> E    L_3       
     e(  8 -  8) =     12.83732  eV     1   --> A_1  L_1       
     e(  9 - 10) =     13.30231  eV     2   --> E    L_3       

 **************************************************************************

 **************************************************************************

                    xk=(  -0.23333,   0.23333,   0.23333  )

     Band symmetry, C_3v (3m)   point group:

     e(  1 -  1) =     -5.17522  eV     1   --> A_1  L_1       
     e(  2 -  2) =      2.43600  eV     1   --> A_1  L_1       
     e(  3 -  4) =      5.35768  eV     2   --> E    L_3       
     e(  5 -  5) =      8.10825  eV     1   --> A_1  L_1       
     e(  6 -  7) =      9.52941  eV     2   --> E    L_3       
     e(  8 -  8) =     12.56179  eV     1   --> A_1  L_1       
     e(  9 - 10) =     13.22760  eV     2   --> E    L_3       

 **************************************************************************

 **************************************************************************

                    xk=(  -0.21667,   0.21667,   0.21667  )

     Band symmetry, C_3v (3m)   point group:

     e(  1 -  1) =     -5.26989  eV     1   --> A_1  L_1       
     e(  2 -  2) =      2.74277  eV     1   --> A_1  L_1       
     e(  3 -  4) =      5.41813  eV     2   --> E    L_3       
     e(  5 -  5) =      8.17644  eV     1   --> A_1  L_1       
     e(  6 -  7) =      9.48058  eV     2   --> E    L_3       
     e(  8 -  8) =     12.27947  eV     1   --> A_1  L_1       
     e(  9 - 10) =     13.18060  eV     2   --> E    L_3       

 **************************************************************************

 **************************************************************************

                    xk=(  -0.20000,   0.20000,   0.20000  )

     Band symmetry, C_3v (3m)   point group:

     e(  1 -  1) =     -5.35793  eV     1   --> A_1  L_1       
     e(  2 -  2) =      3.05324  eV     1   --> A_1  L_1       
     e(  3 -  4) =      5.48094  eV     2   --> E    L_3       
     e(  5 -  5) =      8.24235  eV     1   --> A_1  L_1       
     e(  6 -  7) =      9.41972  eV     2   --> E    L_3       
     e(  8 -  8) =     11.99033  eV     1   --> A_1  L_1       
     e(  9 - 10) =     13.16286  eV     2   --> E    L_3       

 **************************************************************************

 **************************************************************************

                    xk=(  -0.18333,   0.18333,   0.18333  )

     Band symmetry, C_3v (3m)   point group:

     e(  1 -  1) =     -5.43945  eV     1   --> A_1  L_1       
     e(  2 -  2) =      3.36646  eV     1   --> A_1  L_1       
     e(  3 -  4) =      5.54539  eV     2   --> E    L_3       
     e(  5 -  5) =      8.30898  eV     1   --> A_1  L_1       
     e(  6 -  7) =      9.34765  eV     2   --> E    L_3       
     e(  8 -  8) =     11.69796  eV     1   --> A_1  L_1       
     e(  9 - 10) =     13.17142  eV     2   --> E    L_3       

 **************************************************************************

 **************************************************************************

                    xk=(  -0.16667,   0.16667,   0.16667  )

     Band symmetry, C_3v (3m)   point group:

     e(  1 -  1) =     -5.51369  eV     1   --> A_1  L_1       
     e(  2 -  2) =      3.68129  eV     1   --> A_1  L_1       
     e(  3 -  4) =      5.61148  eV     2   --> E    L_3       
     e(  5 -  5) =      8.37560  eV     1   --> A_1  L_1       
     e(  6 -  7) =      9.26747  eV     2   --> E    L_3       
     e(  8 -  8) =     11.40418  eV     1   --> A_1  L_1       
     e(  9 - 10) =     13.20498  eV     2   --> E    L_3       

 **************************************************************************

 **************************************************************************

                    xk=(  -0.15000,   0.15000,   0.15000  )

     Band symmetry, C_3v (3m)   point group:

     e(  1 -  1) =     -5.58233  eV     1   --> A_1  L_1       
     e(  2 -  2) =      3.99599  eV     1   --> A_1  L_1       
     e(  3 -  4) =      5.67644  eV     2   --> E    L_3       
     e(  5 -  5) =      8.44054  eV     1   --> A_1  L_1       
     e(  6 -  7) =      9.18018  eV     2   --> E    L_3       
     e(  8 -  8) =     11.11020  eV     1   --> A_1  L_1       
     e(  9 - 10) =     13.25284  eV     2   --> E    L_3       

 **************************************************************************

 **************************************************************************

                    xk=(  -0.13333,   0.13333,   0.13333  )

     Band symmetry, C_3v (3m)   point group:

     e(  1 -  1) =     -5.64348  eV     1   --> A_1  L_1       
     e(  2 -  2) =      4.30876  eV     1   --> A_1  L_1       
     e(  3 -  4) =      5.74145  eV     2   --> E    L_3       
     e(  5 -  5) =      8.50246  eV     1   --> A_1  L_1       
     e(  6 -  7) =      9.08979  eV     2   --> E    L_3       
     e(  8 -  8) =     10.81884  eV     1   --> A_1  L_1       
     e(  9 - 10) =     13.32149  eV     2   --> E    L_3       

 **************************************************************************

 **************************************************************************

                    xk=(  -0.11667,   0.11667,   0.11667  )

     Band symmetry, C_3v (3m)   point group:

     e(  1 -  1) =     -5.69812  eV     1   --> A_1  L_1       
     e(  2 -  2) =      4.61610  eV     1   --> A_1  L_1       
     e(  3 -  4) =      5.80455  eV     2   --> E    L_3       
     e(  5 -  5) =      8.55890  eV     1   --> A_1  L_1       
     e(  6 -  7) =      8.99903  eV     2   --> E    L_3       
     e(  8 -  8) =     10.53273  eV     1   --> A_1  L_1       
     e(  9 - 10) =     13.39817  eV     2   --> E    L_3       

 **************************************************************************

 **************************************************************************

                    xk=(  -0.10000,   0.10000,   0.10000  )

     Band symmetry, C_3v (3m)   point group:

     e(  1 -  1) =     -5.74488  eV     1   --> A_1  L_1       
     e(  2 -  2) =      4.91674  eV     1   --> A_1  L_1       
     e(  3 -  4) =      5.86416  eV     2   --> E    L_3       
     e(  5 -  5) =      8.60922  eV     1   --> A_1  L_1       
     e(  6 -  7) =      8.91208  eV     2   --> E    L_3       
     e(  8 -  8) =     10.25739  eV     1   --> A_1  L_1       
     e(  9 - 10) =     13.48656  eV     2   --> E    L_3       

 **************************************************************************

 **************************************************************************

                    xk=(  -0.08333,   0.08333,   0.08333  )

     Band symmetry, C_3v (3m)   point group:

     e(  1 -  1) =     -5.78482  eV     1   --> A_1  L_1       
     e(  2 -  2) =      5.20377  eV     1   --> A_1  L_1       
     e(  3 -  4) =      5.91935  eV     2   --> E    L_3       
     e(  5 -  5) =      8.64737  eV     1   --> A_1  L_1       
     e(  6 -  7) =      8.83123  eV     2   --> E    L_3       
     e(  8 -  8) =      9.99841  eV     1   --> A_1  L_1       
     e(  9 - 10) =     13.57760  eV     2   --> E    L_3       

 **************************************************************************

 **************************************************************************

                    xk=(  -0.06667,   0.06667,   0.06667  )

     Band symmetry, C_3v (3m)   point group:

     e(  1 -  1) =     -5.81756  eV     1   --> A_1  L_1       
     e(  2 -  2) =      5.46954  eV     1   --> A_1  L_1       
     e(  3 -  4) =      5.96758  eV     2   --> E    L_3       
     e(  5 -  5) =      8.66908  eV     1   --> A_1  L_1       
     e(  6 -  7) =      8.75900  eV     2   --> E    L_3       
     e(  8 -  8) =      9.76603  eV     1   --> A_1  L_1       
     e(  9 - 10) =     13.66060  eV     2   --> E    L_3       

 **************************************************************************

 **************************************************************************

                    xk=(  -0.05000,   0.05000,   0.05000  )

     Band symmetry, C_3v (3m)   point group:

     e(  1 -  1) =     -5.84306  eV     1   --> A_1  L_1       
     e(  2 -  2) =      5.70487  eV     1   --> A_1  L_1       
     e(  3 -  4) =      6.00803  eV     2   --> E    L_3       
     e(  5 -  5) =      8.67192  eV     1   --> A_1  L_1       
     e(  6 -  7) =      8.69978  eV     2   --> E    L_3       
     e(  8 -  8) =      9.57420  eV     1   --> A_1  L_1       
     e(  9 - 10) =     13.73865  eV     2   --> E    L_3       

 **************************************************************************

 **************************************************************************

                    xk=(  -0.03333,   0.03333,   0.03333  )

     Band symmetry, C_3v (3m)   point group:

     e(  1 -  1) =     -5.86130  eV     1   --> A_1  L_1       
     e(  2 -  2) =      5.89432  eV     1   --> A_1  L_1       
     e(  3 -  4) =      6.03847  eV     2   --> E    L_3       
     e(  5 -  5) =      8.65507  eV     1   --> A_1  L_1       
     e(  6 -  7) =      8.65539  eV     2   --> E    L_3       
     e(  8 -  8) =      9.43585  eV     1   --> A_1  L_1       
     e(  9 - 10) =     13.80072  eV     2   -->   ?

 **************************************************************************

 **************************************************************************

                    xk=(  -0.01667,   0.01667,   0.01667  )

     Band symmetry, C_3v (3m)   point group:

     e(  1 -  1) =     -5.87225  eV     1   --> A_1  L_1       
     e(  2 -  2) =      6.01964  eV     1   --> A_1  L_1       
     e(  3 -  4) =      6.05741  eV     2   --> E    L_3       
     e(  5 -  6) =      8.62786  eV     2   --> E    L_3       
     e(  7 -  7) =      8.63038  eV     1   --> A_1  L_1       
     e(  8 -  8) =      9.35628  eV     1   --> A_1  L_1       
     e(  9 -  9) =     13.77366  eV     1   --> A_1  L_1       
     e( 10 - 10) =     13.84087  eV     1   -->   ?

 **************************************************************************

 **************************************************************************

                    xk=(   0.00000,   0.00000,   0.00000  )

     point group O_h (m-3m) 
     there are 10 classes
     the character table:

       E     8C3   3C2   6C4   6C2'  i     8S6   3s_h  6S4   6s_d 
A_1g   1.00  1.00  1.00  1.00  1.00  1.00  1.00  1.00  1.00  1.00
A_2g   1.00  1.00  1.00 -1.00 -1.00  1.00  1.00  1.00 -1.00 -1.00
E_g    2.00 -1.00  2.00  0.00  0.00  2.00 -1.00  2.00  0.00  0.00
T_1g   3.00  0.00 -1.00  1.00 -1.00  3.00  0.00 -1.00  1.00 -1.00
T_2g   3.00  0.00 -1.00 -1.00  1.00  3.00  0.00 -1.00 -1.00  1.00
A_1u   1.00  1.00  1.00  1.00  1.00 -1.00 -1.00 -1.00 -1.00 -1.00
A_2u   1.00  1.00  1.00 -1.00 -1.00 -1.00 -1.00 -1.00  1.00  1.00
E_u    2.00 -1.00  2.00  0.00  0.00 -2.00  1.00 -2.00  0.00  0.00
T_1u   3.00  0.00 -1.00  1.00 -1.00 -3.00  0.00  1.00 -1.00  1.00
T_2u   3.00  0.00 -1.00 -1.00  1.00 -3.00  0.00  1.00  1.00 -1.00

     the symmetry operations in each class and the name of the first element:

     E        1
                                                                 
     8C3     17   19   20   18   24   21   22   23
                                                                 
     3C2      2    4    3
                                                                 
     6C4      7    8   15   16   12   11
                                                                 
     6C2'     5    6   14   13   10    9
                                                                 
     i       25
                                                                 
     8S6     41   43   44   42   48   45   46   47
                                                                 
     3s_h    26   28   27
                                                                 
     6S4     31   32   39   40   36   35
                                                                 
     6s_d    29   30   38   37   34   33
                                                                 

     Band symmetry, O_h (m-3m)  point group:

     e(  1 -  1) =     -5.87590  eV     1   --> A_1g G_1   G_1+
     e(  2 -  4) =      6.06384  eV     3   --> T_2g G_25' G_5+
     e(  5 -  7) =      8.61853  eV     3   --> T_1u G_15  G_4-
     e(  8 -  8) =      9.33103  eV     1   --> A_2u G_2'  G_2-
     e(  9 -  9) =     13.75699  eV     1   --> A_1g G_1   G_1+
     e( 10 - 10) =     13.85478  eV     1   -->   ?

 **************************************************************************

     BANDS        :      1.59s CPU      1.98s WALL


   This run was terminated on:  14:55: 5  23May2025            

=------------------------------------------------------------------------------=
   JOB DONE.
=------------------------------------------------------------------------------=
