
     Program PWSCF v.7.2 starts on 23May2025 at 13: 7:15 

     This program is part of the open-source Quantum ESPRESSO suite
     for quantum simulation of materials; please cite
         "P. Giannozzi et al., J. Phys.:Condens. Matter 21 395502 (2009);
         "P. Giannozzi et al., J. Phys.:Condens. Matter 29 465901 (2017);
         "P. Giannozzi et al., J. Chem. Phys. 152 154105 (2020);
          URL http://www.quantum-espresso.org", 
     in publications or presentations arising from this work. More details at
     http://www.quantum-espresso.org/quote

     Parallel version (MPI & OpenMP), running on       1 processor cores
     Number of MPI processes:                 1
     Threads/MPI process:                     1

     MPI processes distributed on     1 nodes
     48074 MiB available memory on the printing compute node when the environment starts

     Reading input from si.scf.in

     Current dimensions of program PWSCF are:
     Max number of different atomic species (ntypx) = 10
     Max number of k-points (npk) =  40000
     Max angular momentum in pseudopotentials (lmaxx) =  4
     Message from routine setup:
     no reason to have ecutrho>4*ecutwfc

     Subspace diagonalization in iterative solution of the eigenvalue problem:
     a serial algorithm will be used


     G-vector sticks info
     --------------------
     sticks:   dense  smooth     PW     G-vecs:    dense   smooth      PW
     Sum         733     295     97                12939     3287     645

     Using Slab Decomposition



     bravais-lattice index     =            2
     lattice parameter (alat)  =      10.2620  a.u.
     unit-cell volume          =     270.1693 (a.u.)^3
     number of atoms/cell      =            2
     number of atomic types    =            1
     number of electrons       =         8.00
     number of Kohn-Sham states=            4
     kinetic-energy cutoff     =      20.0000  Ry
     charge density cutoff     =     200.0000  Ry
     scf convergence threshold =      1.0E-06
     mixing beta               =       0.7000
     number of iterations used =            8  plain     mixing
     Exchange-correlation= SLA  PZ   NOGX NOGC
                           (   1   1   0   0   0   0   0)

     celldm(1)=  10.262000  celldm(2)=   0.000000  celldm(3)=   0.000000
     celldm(4)=   0.000000  celldm(5)=   0.000000  celldm(6)=   0.000000

     crystal axes: (cart. coord. in units of alat)
               a(1) = (  -0.500000   0.000000   0.500000 )  
               a(2) = (   0.000000   0.500000   0.500000 )  
               a(3) = (  -0.500000   0.500000   0.000000 )  

     reciprocal axes: (cart. coord. in units 2 pi/alat)
               b(1) = ( -1.000000 -1.000000  1.000000 )  
               b(2) = (  1.000000  1.000000  1.000000 )  
               b(3) = ( -1.000000  1.000000 -1.000000 )  


     PseudoPot. # 1 for Si read from file:
     ../../pseudo/Si.pz-vbc.UPF
     MD5 check sum: a974d1b8727157e37210f3f86afb6210
     Pseudo is Norm-conserving, Zval =  4.0
     Generated by new atomic code, or converted to UPF format
     Using radial grid of  431 points,  2 beta functions with: 
                l(1) =   0
                l(2) =   1

     atomic species   valence    mass     pseudopotential
        Si             4.00    28.08600     Si( 1.00)

     48 Sym. Ops., with inversion, found (24 have fractional translation)



   Cartesian axes

     site n.     atom                  positions (alat units)
         1           Si  tau(   1) = (   0.0000000   0.0000000   0.0000000  )
         2           Si  tau(   2) = (   0.2500000   0.2500000   0.2500000  )

     number of k points=    16
                       cart. coord. in units 2pi/alat
        k(    1) = (   0.0000000   0.0000000   0.0000000), wk =   0.0092593
        k(    2) = (  -0.1666667   0.1666667  -0.1666667), wk =   0.0740741
        k(    3) = (  -0.3333333   0.3333333  -0.3333333), wk =   0.0740741
        k(    4) = (   0.5000000  -0.5000000   0.5000000), wk =   0.0370370
        k(    5) = (   0.0000000   0.3333333   0.0000000), wk =   0.0555556
        k(    6) = (  -0.1666667   0.5000000  -0.1666667), wk =   0.2222222
        k(    7) = (   0.6666667  -0.3333333   0.6666667), wk =   0.2222222
        k(    8) = (   0.5000000  -0.1666667   0.5000000), wk =   0.2222222
        k(    9) = (   0.3333333   0.0000000   0.3333333), wk =   0.1111111
        k(   10) = (   0.0000000   0.6666667   0.0000000), wk =   0.0555556
        k(   11) = (   0.8333333  -0.1666667   0.8333333), wk =   0.2222222
        k(   12) = (   0.6666667  -0.0000000   0.6666667), wk =   0.1111111
        k(   13) = (   0.0000000  -1.0000000   0.0000000), wk =   0.0277778
        k(   14) = (   0.6666667  -0.3333333   1.0000000), wk =   0.2222222
        k(   15) = (   0.5000000  -0.1666667   0.8333333), wk =   0.2222222
        k(   16) = (  -0.3333333  -1.0000000   0.0000000), wk =   0.1111111

     Dense  grid:    12939 G-vectors     FFT dimensions: (  36,  36,  36)

     Smooth grid:     3287 G-vectors     FFT dimensions: (  24,  24,  24)

     Estimated max dynamical RAM per process >       9.18 MB

     Initial potential from superposition of free atoms

     starting charge       7.9990, renormalised to       8.0000
     Starting wfcs are    8 randomized atomic wfcs

     total cpu time spent up to now is        0.4 secs

     Self-consistent Calculation

     iteration #  1     ecut=    20.00 Ry     beta= 0.70
     Davidson diagonalization with overlap
     ethr =  1.00E-02,  avg # of iterations =  2.0

     Threshold (ethr) on eigenvalues was too large:
     Diagonalizing with lowered threshold

     Davidson diagonalization with overlap
     ethr =  6.81E-04,  avg # of iterations =  1.1

     total cpu time spent up to now is        0.5 secs

     total energy              =     -15.84232145 Ry
     estimated scf accuracy    <       0.05990827 Ry

     iteration #  2     ecut=    20.00 Ry     beta= 0.70
     Davidson diagonalization with overlap
     ethr =  7.49E-04,  avg # of iterations =  1.0

     total cpu time spent up to now is        0.5 secs

     total energy              =     -15.84527184 Ry
     estimated scf accuracy    <       0.00224085 Ry

     iteration #  3     ecut=    20.00 Ry     beta= 0.70
     Davidson diagonalization with overlap
     ethr =  2.80E-05,  avg # of iterations =  2.1

     total cpu time spent up to now is        0.5 secs

     total energy              =     -15.84567617 Ry
     estimated scf accuracy    <       0.00006617 Ry

     iteration #  4     ecut=    20.00 Ry     beta= 0.70
     Davidson diagonalization with overlap
     ethr =  8.27E-07,  avg # of iterations =  2.6

     total cpu time spent up to now is        0.5 secs

     total energy              =     -15.84569861 Ry
     estimated scf accuracy    <       0.00000122 Ry

     iteration #  5     ecut=    20.00 Ry     beta= 0.70
     Davidson diagonalization with overlap
     ethr =  1.53E-08,  avg # of iterations =  4.3

     total cpu time spent up to now is        0.6 secs

     End of self-consistent calculation

          k = 0.0000 0.0000 0.0000 (   411 PWs)   bands (ev):

    -5.8749   6.0653   6.0653   6.0653

          k =-0.1667 0.1667-0.1667 (   396 PWs)   bands (ev):

    -5.5127   3.6825   5.6128   5.6128

          k =-0.3333 0.3333-0.3333 (   407 PWs)   bands (ev):

    -4.4948   0.7240   5.0591   5.0591

          k = 0.5000-0.5000 0.5000 (   410 PWs)   bands (ev):

    -3.5299  -0.9240   4.8587   4.8587

          k = 0.0000 0.3333 0.0000 (   399 PWs)   bands (ev):

    -5.3904   4.0367   4.8651   4.8651

          k =-0.1667 0.5000-0.1667 (   405 PWs)   bands (ev):

    -4.5741   1.6353   4.0605   4.3088

          k = 0.6667-0.3333 0.6667 (   409 PWs)   bands (ev):

    -3.3738  -0.5469   3.2725   4.2787

          k = 0.5000-0.1667 0.5000 (   410 PWs)   bands (ev):

    -3.7629   0.0573   2.9984   4.7604

          k = 0.3333 0.0000 0.3333 (   397 PWs)   bands (ev):

    -4.9239   2.3557   3.6331   5.4985

          k = 0.0000 0.6667 0.0000 (   419 PWs)   bands (ev):

    -3.9703   1.0756   3.6328   3.6328

          k = 0.8333-0.1667 0.8333 (   411 PWs)   bands (ev):

    -2.8028  -0.4763   2.4018   3.4954

          k = 0.6667-0.0000 0.6667 (   403 PWs)   bands (ev):

    -2.5994  -0.6855   1.6107   3.9408

          k = 0.0000-1.0000 0.0000 (   412 PWs)   bands (ev):

    -1.7278  -1.7278   3.1957   3.1957

          k = 0.6667-0.3333 1.0000 (   407 PWs)   bands (ev):

    -3.5819   0.4409   2.4657   3.7530

          k = 0.5000-0.1667 0.8333 (   406 PWs)   bands (ev):

    -2.5891  -0.7635   2.0233   3.2805

          k =-0.3333-1.0000 0.0000 (   406 PWs)   bands (ev):

    -1.6030  -1.6030   2.3881   2.3881

     highest occupied level (ev):     6.0653

!    total energy              =     -15.84569996 Ry
     estimated scf accuracy    <       0.00000016 Ry

     The total energy is the sum of the following terms:
     one-electron contribution =       4.65348558 Ry
     hartree contribution      =       1.09607540 Ry
     xc contribution           =      -4.79760573 Ry
     ewald contribution        =     -16.79765521 Ry

     convergence has been achieved in   5 iterations

     Writing all to output data dir ./tmp/Si.save/

     init_run     :      0.41s CPU      0.42s WALL (       1 calls)
     electrons    :      0.13s CPU      0.13s WALL (       1 calls)

     Called by init_run:
     wfcinit      :      0.11s CPU      0.11s WALL (       1 calls)
     potinit      :      0.13s CPU      0.13s WALL (       1 calls)
     hinit0       :      0.17s CPU      0.17s WALL (       1 calls)

     Called by electrons:
     c_bands      :      0.09s CPU      0.10s WALL (       6 calls)
     sum_band     :      0.02s CPU      0.02s WALL (       6 calls)
     v_of_rho     :      0.01s CPU      0.01s WALL (       6 calls)
     mix_rho      :      0.00s CPU      0.00s WALL (       6 calls)

     Called by c_bands:
     init_us_2    :      0.00s CPU      0.00s WALL (     208 calls)
     init_us_2:cp :      0.00s CPU      0.00s WALL (     208 calls)
     cegterg      :      0.09s CPU      0.09s WALL (      96 calls)

     Called by *egterg:
     cdiaghg      :      0.00s CPU      0.00s WALL (     290 calls)
     h_psi        :      0.19s CPU      0.20s WALL (     322 calls)
     g_psi        :      0.00s CPU      0.00s WALL (     210 calls)

     Called by h_psi:
     h_psi:calbec :      0.00s CPU      0.00s WALL (     322 calls)
     vloc_psi     :      0.19s CPU      0.19s WALL (     322 calls)
     add_vuspsi   :      0.00s CPU      0.00s WALL (     322 calls)

     General routines
     calbec       :      0.00s CPU      0.00s WALL (     322 calls)
     fft          :      0.17s CPU      0.17s WALL (      28 calls)
     ffts         :      0.13s CPU      0.13s WALL (      12 calls)
     fftw         :      0.18s CPU      0.18s WALL (    2816 calls)
     interpolate  :      0.13s CPU      0.13s WALL (       6 calls)

     Parallel routines

     PWSCF        :      0.56s CPU      0.62s WALL


   This run was terminated on:  13: 7:16  23May2025            

=------------------------------------------------------------------------------=
   JOB DONE.
=------------------------------------------------------------------------------=
