
     Program PWSCF v.6.5 starts on 29May2025 at 16:49:22 

     This program is part of the open-source Quantum ESPRESSO suite
     for quantum simulation of materials; please cite
         "P. Giannozzi et al., J. Phys.:Condens. Matter 21 395502 (2009);
         "P. Giannozzi et al., J. Phys.:Condens. Matter 29 465901 (2017);
          URL http://www.quantum-espresso.org", 
     in publications or presentations arising from this work. More details at
     http://www.quantum-espresso.org/quote

     Parallel version (MPI), running on     1 processors

     MPI processes distributed on     1 nodes
     Waiting for input...
     Reading input from standard input

     Current dimensions of program PWSCF are:
     Max number of different atomic species (ntypx) = 10
     Max number of k-points (npk) =  40000
     Max angular momentum in pseudopotentials (lmaxx) =  3

     Subspace diagonalization in iterative solution of the eigenvalue problem:
     a serial algorithm will be used

     Message from routine setup:
     no reason to have ecutrho>4*ecutwfc

     G-vector sticks info
     --------------------
     sticks:   dense  smooth     PW     G-vecs:    dense   smooth      PW
     Sum         733     295     97                12939     3287     645



     bravais-lattice index     =            2
     lattice parameter (alat)  =      10.2620  a.u.
     unit-cell volume          =     270.1693 (a.u.)^3
     number of atoms/cell      =            2
     number of atomic types    =            1
     number of electrons       =         8.00
     number of Kohn-Sham states=            5
     kinetic-energy cutoff     =      20.0000  Ry
     charge density cutoff     =     200.0000  Ry
     convergence threshold     =      1.0E-06
     mixing beta               =       0.7000
     number of iterations used =            8  plain     mixing
     Exchange-correlation= SLA PW PBE PBE
                           (   1   4   3   4   0   0   0)

     celldm(1)=  10.262000  celldm(2)=   0.000000  celldm(3)=   0.000000
     celldm(4)=   0.000000  celldm(5)=   0.000000  celldm(6)=   0.000000

     crystal axes: (cart. coord. in units of alat)
               a(1) = (  -0.500000   0.000000   0.500000 )  
               a(2) = (   0.000000   0.500000   0.500000 )  
               a(3) = (  -0.500000   0.500000   0.000000 )  

     reciprocal axes: (cart. coord. in units 2 pi/alat)
               b(1) = ( -1.000000 -1.000000  1.000000 )  
               b(2) = (  1.000000  1.000000  1.000000 )  
               b(3) = ( -1.000000  1.000000 -1.000000 )  


     PseudoPot. # 1 for Si read from file:
     ./Si.pbe-rrkj.UPF
     MD5 check sum: c5f788e1e261afac4ba18be32da5cf3b
     Pseudo is Norm-conserving, Zval =  4.0
     Generated by new atomic code, or converted to UPF format
     Using radial grid of  883 points,  3 beta functions with: 
                l(1) =   0
                l(2) =   0
                l(3) =   1

     atomic species   valence    mass     pseudopotential
        Si             4.00    28.08600     Si( 1.00)

     48 Sym. Ops., with inversion, found (24 have fractional translation)



   Cartesian axes

     site n.     atom                  positions (alat units)
         1           Si  tau(   1) = (   0.0000000   0.0000000   0.0000000  )
         2           Si  tau(   2) = (   0.2500000   0.2500000   0.2500000  )

     number of k points=    16
                       cart. coord. in units 2pi/alat
        k(    1) = (   0.0000000   0.0000000   0.0000000), wk =   0.0092593
        k(    2) = (  -0.1666667   0.1666667  -0.1666667), wk =   0.0740741
        k(    3) = (  -0.3333333   0.3333333  -0.3333333), wk =   0.0740741
        k(    4) = (   0.5000000  -0.5000000   0.5000000), wk =   0.0370370
        k(    5) = (   0.0000000   0.3333333   0.0000000), wk =   0.0555556
        k(    6) = (  -0.1666667   0.5000000  -0.1666667), wk =   0.2222222
        k(    7) = (   0.6666667  -0.3333333   0.6666667), wk =   0.2222222
        k(    8) = (   0.5000000  -0.1666667   0.5000000), wk =   0.2222222
        k(    9) = (   0.3333333   0.0000000   0.3333333), wk =   0.1111111
        k(   10) = (   0.0000000   0.6666667   0.0000000), wk =   0.0555556
        k(   11) = (   0.8333333  -0.1666667   0.8333333), wk =   0.2222222
        k(   12) = (   0.6666667  -0.0000000   0.6666667), wk =   0.1111111
        k(   13) = (   0.0000000  -1.0000000   0.0000000), wk =   0.0277778
        k(   14) = (   0.6666667  -0.3333333   1.0000000), wk =   0.2222222
        k(   15) = (   0.5000000  -0.1666667   0.8333333), wk =   0.2222222
        k(   16) = (  -0.3333333  -1.0000000   0.0000000), wk =   0.1111111

     Dense  grid:    12939 G-vectors     FFT dimensions: (  36,  36,  36)

     Smooth grid:     3287 G-vectors     FFT dimensions: (  24,  24,  24)

     Estimated max dynamical RAM per process >       9.69 MB

     Initial potential from superposition of free atoms

     starting charge    7.99889, renormalised to    8.00000
     Starting wfcs are    8 randomized atomic wfcs

     total cpu time spent up to now is        0.2 secs

     Self-consistent Calculation

     iteration #  1     ecut=    20.00 Ry     beta= 0.70
     Davidson diagonalization with overlap
     ethr =  1.00E-02,  avg # of iterations =  3.0

     Threshold (ethr) on eigenvalues was too large:
     Diagonalizing with lowered threshold

     Davidson diagonalization with overlap
     ethr =  7.42E-04,  avg # of iterations =  1.2

     total cpu time spent up to now is        0.4 secs

     total energy              =     -15.73645206 Ry
     Harris-Foulkes estimate   =     -15.75044984 Ry
     estimated scf accuracy    <       0.05917666 Ry

     iteration #  2     ecut=    20.00 Ry     beta= 0.70
     Davidson diagonalization with overlap
     ethr =  7.40E-04,  avg # of iterations =  1.0

     total cpu time spent up to now is        0.5 secs

     total energy              =     -15.73872091 Ry
     Harris-Foulkes estimate   =     -15.73870668 Ry
     estimated scf accuracy    <       0.00267865 Ry

     iteration #  3     ecut=    20.00 Ry     beta= 0.70
     Davidson diagonalization with overlap
     ethr =  3.35E-05,  avg # of iterations =  2.6

     total cpu time spent up to now is        0.6 secs

     total energy              =     -15.73901170 Ry
     Harris-Foulkes estimate   =     -15.73901784 Ry
     estimated scf accuracy    <       0.00004809 Ry

     iteration #  4     ecut=    20.00 Ry     beta= 0.70
     Davidson diagonalization with overlap
     ethr =  6.01E-07,  avg # of iterations =  3.6

     total cpu time spent up to now is        0.7 secs

     End of self-consistent calculation

          k = 0.0000 0.0000 0.0000 (   411 PWs)   bands (ev):

    -5.6671   6.2364   6.2364   6.2364   8.8081

          k =-0.1667 0.1667-0.1667 (   396 PWs)   bands (ev):

    -5.3060   3.8804   5.7882   5.7882   8.6286

          k =-0.3333 0.3333-0.3333 (   407 PWs)   bands (ev):

    -4.2899   0.9356   5.2395   5.2395   8.0525

          k = 0.5000-0.5000 0.5000 (   410 PWs)   bands (ev):

    -3.3310  -0.7016   5.0415   5.0415   7.8307

          k = 0.0000 0.3333 0.0000 (   399 PWs)   bands (ev):

    -5.1832   4.2343   5.0473   5.0473   7.9581

          k =-0.1667 0.5000-0.1667 (   405 PWs)   bands (ev):

    -4.3679   1.8389   4.2578   4.4952   8.2197

          k = 0.6667-0.3333 0.6667 (   409 PWs)   bands (ev):

    -3.1735  -0.3317   3.4767   4.4650   8.3025

          k = 0.5000-0.1667 0.5000 (   410 PWs)   bands (ev):

    -3.5600   0.2687   3.2045   4.9433   8.7173

          k = 0.3333 0.0000 0.3333 (   397 PWs)   bands (ev):

    -4.7179   2.5565   3.8335   5.6743   9.3100

          k = 0.0000 0.6667 0.0000 (   419 PWs)   bands (ev):

    -3.7638   1.2762   3.8244   3.8244   6.9859

          k = 0.8333-0.1667 0.8333 (   411 PWs)   bands (ev):

    -2.5993  -0.2754   2.6133   3.6881   7.3213

          k = 0.6667-0.0000 0.6667 (   403 PWs)   bands (ev):

    -2.4003  -0.4828   1.8325   4.1300   7.8262

          k = 0.0000-1.0000 0.0000 (   412 PWs)   bands (ev):

    -1.5250  -1.5250   3.3904   3.3904   6.9684

          k = 0.6667-0.3333 1.0000 (   407 PWs)   bands (ev):

    -3.3776   0.6423   2.6774   3.9488   9.1041

          k = 0.5000-0.1667 0.8333 (   406 PWs)   bands (ev):

    -2.3900  -0.5583   2.2394   3.4819   9.5996

          k =-0.3333-1.0000 0.0000 (   406 PWs)   bands (ev):

    -1.4031  -1.4031   2.5997   2.5997   9.0008

     highest occupied, lowest unoccupied level (ev):     6.2364    6.9684

!    total energy              =     -15.73903572 Ry
     Harris-Foulkes estimate   =     -15.73903540 Ry
     estimated scf accuracy    <       0.00000034 Ry

     The total energy is the sum of the following terms:

     one-electron contribution =       4.77447855 Ry
     hartree contribution      =       1.09860327 Ry
     xc contribution           =      -4.81446232 Ry
     ewald contribution        =     -16.79765521 Ry

     convergence has been achieved in   4 iterations

     Writing output data file ./tmp/Si.save/

     init_run     :      0.09s CPU      0.12s WALL (       1 calls)
     electrons    :      0.50s CPU      0.56s WALL (       1 calls)

     Called by init_run:
     wfcinit      :      0.03s CPU      0.03s WALL (       1 calls)
     potinit      :      0.02s CPU      0.04s WALL (       1 calls)
     hinit0       :      0.03s CPU      0.03s WALL (       1 calls)

     Called by electrons:
     c_bands      :      0.29s CPU      0.33s WALL (       5 calls)
     sum_band     :      0.09s CPU      0.09s WALL (       5 calls)
     v_of_rho     :      0.13s CPU      0.15s WALL (       5 calls)
     mix_rho      :      0.01s CPU      0.01s WALL (       5 calls)

     Called by c_bands:
     init_us_2    :      0.01s CPU      0.01s WALL (     176 calls)
     cegterg      :      0.27s CPU      0.27s WALL (      80 calls)

     Called by sum_band:

     Called by *egterg:
     h_psi        :      0.25s CPU      0.26s WALL (     279 calls)
     g_psi        :      0.00s CPU      0.00s WALL (     183 calls)
     cdiaghg      :      0.01s CPU      0.01s WALL (     247 calls)

     Called by h_psi:
     h_psi:calbec :      0.01s CPU      0.01s WALL (     279 calls)
     vloc_psi     :      0.24s CPU      0.24s WALL (     279 calls)
     add_vuspsi   :      0.01s CPU      0.01s WALL (     279 calls)

     General routines
     calbec       :      0.01s CPU      0.01s WALL (     279 calls)
     fft          :      0.04s CPU      0.04s WALL (      58 calls)
     ffts         :      0.00s CPU      0.01s WALL (      10 calls)
     fftw         :      0.25s CPU      0.25s WALL (    2734 calls)
     interpolate  :      0.01s CPU      0.01s WALL (       5 calls)

     Parallel routines

     PWSCF        :      0.66s CPU      0.82s WALL


   This run was terminated on:  16:49:23  29May2025            

=------------------------------------------------------------------------------=
   JOB DONE.
=------------------------------------------------------------------------------=
