
     Program PWSCF v.7.4 starts on 10Jun2025 at 17:39:47 

     This program is part of the open-source Quantum ESPRESSO suite
     for quantum simulation of materials; please cite
         "P. Giannozzi et al., J. Phys.:Condens. Matter 21 395502 (2009);
         "P. Giannozzi et al., J. Phys.:Condens. Matter 29 465901 (2017);
         "P. Giannozzi et al., J. Chem. Phys. 152 154105 (2020);
          URL http://www.quantum-espresso.org", 
     in publications or presentations arising from this work. More details at
     http://www.quantum-espresso.org/quote

     Parallel version (MPI), running on     1 processors

     MPI processes distributed on     1 nodes
     6799 MiB available memory on the printing compute node when the environment starts

     Reading input from pw.si.scf_ecut20.in
     Message from routine read_cards :
     DEPRECATED: no units specified in ATOMIC_POSITIONS card
     Message from routine read_cards :
     ATOMIC_POSITIONS: units set to alat

     Current dimensions of program PWSCF are:
     Max number of different atomic species (ntypx) = 10
     Max number of k-points (npk) =  40000
     Max angular momentum in pseudopotentials (lmaxx) =  4

     Subspace diagonalization in iterative solution of the eigenvalue problem:
     a serial algorithm will be used


     G-vector sticks info
     --------------------
     sticks:   dense  smooth     PW     G-vecs:    dense   smooth      PW
     Sum         283     283     97                 3143     3143     645

     Using Slab Decomposition



     bravais-lattice index     =            2
     lattice parameter (alat)  =      10.2000  a.u.
     unit-cell volume          =     265.3020 (a.u.)^3
     number of atoms/cell      =            2
     number of atomic types    =            1
     number of electrons       =         8.00
     number of Kohn-Sham states=            4
     kinetic-energy cutoff     =      20.0000  Ry
     charge density cutoff     =      80.0000  Ry
     scf convergence threshold =      1.0E-06
     mixing beta               =       0.7000
     number of iterations used =            8  plain     mixing
     Exchange-correlation= SLA  PZ   NOGX NOGC
                           (   1   1   0   0   0   0   0)

     celldm(1)=  10.200000  celldm(2)=   0.000000  celldm(3)=   0.000000
     celldm(4)=   0.000000  celldm(5)=   0.000000  celldm(6)=   0.000000

     crystal axes: (cart. coord. in units of alat)
               a(1) = (  -0.500000   0.000000   0.500000 )  
               a(2) = (   0.000000   0.500000   0.500000 )  
               a(3) = (  -0.500000   0.500000   0.000000 )  

     reciprocal axes: (cart. coord. in units 2 pi/alat)
               b(1) = ( -1.000000 -1.000000  1.000000 )  
               b(2) = (  1.000000  1.000000  1.000000 )  
               b(3) = ( -1.000000  1.000000 -1.000000 )  


     PseudoPot. # 1 for Si read from file:
     ../../pseudo/Si.pz-vbc.UPF
     MD5 check sum: a974d1b8727157e37210f3f86afb6210
     Pseudo is Norm-conserving, Zval =  4.0
     Generated by new atomic code, or converted to UPF format
     Using radial grid of  431 points,  2 beta functions with: 
                l(1) =   0
                l(2) =   1

     atomic species   valence    mass     pseudopotential
     Si                4.00    28.08600     Si( 1.00)

     48 Sym. Ops., with inversion, found (24 have fractional translation)



   Cartesian axes

     site n.     atom                  positions (alat units)
         1        Si     tau(   1) = (   0.0000000   0.0000000   0.0000000  )
         2        Si     tau(   2) = (   0.2500000   0.2500000   0.2500000  )

     number of k points=    10
                       cart. coord. in units 2pi/alat
        k(    1) = (  -0.1250000   0.1250000   0.1250000), wk =   0.0625000
        k(    2) = (  -0.3750000   0.3750000  -0.1250000), wk =   0.1875000
        k(    3) = (   0.3750000  -0.3750000   0.6250000), wk =   0.1875000
        k(    4) = (   0.1250000  -0.1250000   0.3750000), wk =   0.1875000
        k(    5) = (  -0.1250000   0.6250000   0.1250000), wk =   0.1875000
        k(    6) = (   0.6250000  -0.1250000   0.8750000), wk =   0.3750000
        k(    7) = (   0.3750000   0.1250000   0.6250000), wk =   0.3750000
        k(    8) = (  -0.1250000  -0.8750000   0.1250000), wk =   0.1875000
        k(    9) = (  -0.3750000   0.3750000   0.3750000), wk =   0.0625000
        k(   10) = (   0.3750000  -0.3750000   1.1250000), wk =   0.1875000

     Dense  grid:     3143 G-vectors     FFT dimensions: (  24,  24,  24)

     Estimated max dynamical RAM per process >       2.74 MB

     Initial potential from superposition of free atoms

     starting charge       7.9990, renormalised to       8.0000
     Starting wfcs are    8 randomized atomic wfcs

     total cpu time spent up to now is        0.1 secs

     Self-consistent Calculation

     iteration #  1     ecut=    20.00 Ry     beta= 0.70
     Davidson diagonalization with overlap
     ethr =  1.00E-02,  avg # of iterations =  2.0

     Threshold (ethr) on eigenvalues was too large:
     Diagonalizing with lowered threshold

     Davidson diagonalization with overlap
     ethr =  6.13E-04,  avg # of iterations =  1.1

     total cpu time spent up to now is        0.2 secs

     total energy              =     -15.84469202 Ry
     estimated scf accuracy    <       0.05403778 Ry

     iteration #  2     ecut=    20.00 Ry     beta= 0.70
     Davidson diagonalization with overlap
     ethr =  6.75E-04,  avg # of iterations =  1.0

     total cpu time spent up to now is        0.2 secs

     total energy              =     -15.84714065 Ry
     estimated scf accuracy    <       0.00219968 Ry

     iteration #  3     ecut=    20.00 Ry     beta= 0.70
     Davidson diagonalization with overlap
     ethr =  2.75E-05,  avg # of iterations =  2.4

     total cpu time spent up to now is        0.2 secs

     total energy              =     -15.84752281 Ry
     estimated scf accuracy    <       0.00006438 Ry

     iteration #  4     ecut=    20.00 Ry     beta= 0.70
     Davidson diagonalization with overlap
     ethr =  8.05E-07,  avg # of iterations =  2.9

     total cpu time spent up to now is        0.3 secs

     total energy              =     -15.84754468 Ry
     estimated scf accuracy    <       0.00000182 Ry

     iteration #  5     ecut=    20.00 Ry     beta= 0.70
     Davidson diagonalization with overlap
     ethr =  2.27E-08,  avg # of iterations =  4.0

     total cpu time spent up to now is        0.3 secs

     End of self-consistent calculation

          k =-0.1250 0.1250 0.1250 (   390 PWs)   bands (ev):

    -5.6073   4.6421   5.9526   5.9526

          k =-0.3750 0.3750-0.1250 (   398 PWs)   bands (ev):

    -4.5430   1.5873   3.8882   5.4605

          k = 0.3750-0.3750 0.6250 (   399 PWs)   bands (ev):

    -3.3401  -0.5873   3.9305   4.6529

          k = 0.1250-0.1250 0.3750 (   394 PWs)   bands (ev):

    -5.0618   3.0136   4.8981   4.9874

          k =-0.1250 0.6250 0.1250 (   406 PWs)   bands (ev):

    -3.9942   1.3051   3.5138   3.9902

          k = 0.6250-0.1250 0.8750 (   404 PWs)   bands (ev):

    -2.2781  -0.7074   2.0770   3.2091

          k = 0.3750 0.1250 0.6250 (   402 PWs)   bands (ev):

    -3.5557   0.3703   2.8536   4.2723

          k =-0.1250-0.8750 0.1250 (   407 PWs)   bands (ev):

    -2.4678  -0.5988   2.7215   3.5054

          k =-0.3750 0.3750 0.3750 (   407 PWs)   bands (ev):

    -4.0878   0.2282   5.1398   5.1398

          k = 0.3750-0.3750 1.1250 (   398 PWs)   bands (ev):

    -2.8289  -0.4420   2.1590   4.3205

     highest occupied level (ev):     5.9526

!    total energy              =     -15.84754591 Ry
     estimated scf accuracy    <       0.00000011 Ry

     The total energy is the sum of the following terms:
     one-electron contribution =       4.79073356 Ry
     hartree contribution      =       1.07729409 Ry
     xc contribution           =      -4.81581496 Ry
     ewald contribution        =     -16.89975859 Ry

     convergence has been achieved in   5 iterations

     Writing all to output data dir ./tmp/silicon.save/ :
     XML data file, charge density, pseudopotentials, collected wavefunctions

     init_run     :      0.06s CPU      0.07s WALL (       1 calls)
     electrons    :      0.16s CPU      0.17s WALL (       1 calls)

     Called by init_run:
     wfcinit      :      0.03s CPU      0.03s WALL (       1 calls)
     potinit      :      0.01s CPU      0.01s WALL (       1 calls)
     hinit0       :      0.02s CPU      0.03s WALL (       1 calls)

     Called by electrons:
     c_bands      :      0.12s CPU      0.13s WALL (       6 calls)
     sum_band     :      0.03s CPU      0.03s WALL (       6 calls)
     v_of_rho     :      0.00s CPU      0.00s WALL (       6 calls)
     mix_rho      :      0.00s CPU      0.00s WALL (       6 calls)

     Called by c_bands:
     init_us_2    :      0.00s CPU      0.00s WALL (     130 calls)
     cegterg      :      0.11s CPU      0.12s WALL (      60 calls)

     Called by *egterg:
     cdiaghg      :      0.02s CPU      0.02s WALL (     184 calls)
     h_psi        :      0.11s CPU      0.11s WALL (     204 calls)
     g_psi        :      0.00s CPU      0.00s WALL (     134 calls)

     Called by h_psi:
     h_psi:calbec :      0.00s CPU      0.00s WALL (     204 calls)
     vloc_psi     :      0.10s CPU      0.11s WALL (     204 calls)
     add_vuspsi   :      0.00s CPU      0.00s WALL (     204 calls)

     General routines
     calbec       :      0.00s CPU      0.00s WALL (     204 calls)
     fft          :      0.01s CPU      0.01s WALL (      18 calls)
     ffts         :      0.00s CPU      0.00s WALL (       6 calls)
     fftw         :      0.11s CPU      0.11s WALL (    1730 calls)

     Parallel routines

     PWSCF        :      0.28s CPU      0.31s WALL


   This run was terminated on:  17:39:47  10Jun2025            

=------------------------------------------------------------------------------=
   JOB DONE.
=------------------------------------------------------------------------------=
