
     Program PWSCF v.7.4 starts on 10Jun2025 at 17:39:45 

     This program is part of the open-source Quantum ESPRESSO suite
     for quantum simulation of materials; please cite
         "P. Giannozzi et al., J. Phys.:Condens. Matter 21 395502 (2009);
         "P. Giannozzi et al., J. Phys.:Condens. Matter 29 465901 (2017);
         "P. Giannozzi et al., J. Chem. Phys. 152 154105 (2020);
          URL http://www.quantum-espresso.org", 
     in publications or presentations arising from this work. More details at
     http://www.quantum-espresso.org/quote

     Parallel version (MPI), running on     1 processors

     MPI processes distributed on     1 nodes
     6808 MiB available memory on the printing compute node when the environment starts

     Reading input from pw.si.scf_ecut12.in
     Message from routine read_cards :
     DEPRECATED: no units specified in ATOMIC_POSITIONS card
     Message from routine read_cards :
     ATOMIC_POSITIONS: units set to alat

     Current dimensions of program PWSCF are:
     Max number of different atomic species (ntypx) = 10
     Max number of k-points (npk) =  40000
     Max angular momentum in pseudopotentials (lmaxx) =  4

     Subspace diagonalization in iterative solution of the eigenvalue problem:
     a serial algorithm will be used


     G-vector sticks info
     --------------------
     sticks:   dense  smooth     PW     G-vecs:    dense   smooth      PW
     Sum         163     163     61                 1459     1459     331

     Using Slab Decomposition



     bravais-lattice index     =            2
     lattice parameter (alat)  =      10.2000  a.u.
     unit-cell volume          =     265.3020 (a.u.)^3
     number of atoms/cell      =            2
     number of atomic types    =            1
     number of electrons       =         8.00
     number of Kohn-Sham states=            4
     kinetic-energy cutoff     =      12.0000  Ry
     charge density cutoff     =      48.0000  Ry
     scf convergence threshold =      1.0E-06
     mixing beta               =       0.7000
     number of iterations used =            8  plain     mixing
     Exchange-correlation= SLA  PZ   NOGX NOGC
                           (   1   1   0   0   0   0   0)

     celldm(1)=  10.200000  celldm(2)=   0.000000  celldm(3)=   0.000000
     celldm(4)=   0.000000  celldm(5)=   0.000000  celldm(6)=   0.000000

     crystal axes: (cart. coord. in units of alat)
               a(1) = (  -0.500000   0.000000   0.500000 )  
               a(2) = (   0.000000   0.500000   0.500000 )  
               a(3) = (  -0.500000   0.500000   0.000000 )  

     reciprocal axes: (cart. coord. in units 2 pi/alat)
               b(1) = ( -1.000000 -1.000000  1.000000 )  
               b(2) = (  1.000000  1.000000  1.000000 )  
               b(3) = ( -1.000000  1.000000 -1.000000 )  


     PseudoPot. # 1 for Si read from file:
     ../../pseudo/Si.pz-vbc.UPF
     MD5 check sum: a974d1b8727157e37210f3f86afb6210
     Pseudo is Norm-conserving, Zval =  4.0
     Generated by new atomic code, or converted to UPF format
     Using radial grid of  431 points,  2 beta functions with: 
                l(1) =   0
                l(2) =   1

     atomic species   valence    mass     pseudopotential
     Si                4.00    28.08600     Si( 1.00)

     48 Sym. Ops., with inversion, found (24 have fractional translation)



   Cartesian axes

     site n.     atom                  positions (alat units)
         1        Si     tau(   1) = (   0.0000000   0.0000000   0.0000000  )
         2        Si     tau(   2) = (   0.2500000   0.2500000   0.2500000  )

     number of k points=    10
                       cart. coord. in units 2pi/alat
        k(    1) = (  -0.1250000   0.1250000   0.1250000), wk =   0.0625000
        k(    2) = (  -0.3750000   0.3750000  -0.1250000), wk =   0.1875000
        k(    3) = (   0.3750000  -0.3750000   0.6250000), wk =   0.1875000
        k(    4) = (   0.1250000  -0.1250000   0.3750000), wk =   0.1875000
        k(    5) = (  -0.1250000   0.6250000   0.1250000), wk =   0.1875000
        k(    6) = (   0.6250000  -0.1250000   0.8750000), wk =   0.3750000
        k(    7) = (   0.3750000   0.1250000   0.6250000), wk =   0.3750000
        k(    8) = (  -0.1250000  -0.8750000   0.1250000), wk =   0.1875000
        k(    9) = (  -0.3750000   0.3750000   0.3750000), wk =   0.0625000
        k(   10) = (   0.3750000  -0.3750000   1.1250000), wk =   0.1875000

     Dense  grid:     1459 G-vectors     FFT dimensions: (  16,  16,  16)

     Estimated max dynamical RAM per process >       1.13 MB

     Initial potential from superposition of free atoms

     starting charge       7.9990, renormalised to       8.0000
     Starting wfcs are    8 randomized atomic wfcs

     total cpu time spent up to now is        0.1 secs

     Self-consistent Calculation

     iteration #  1     ecut=    12.00 Ry     beta= 0.70
     Davidson diagonalization with overlap
     ethr =  1.00E-02,  avg # of iterations =  2.0

     Threshold (ethr) on eigenvalues was too large:
     Diagonalizing with lowered threshold

     Davidson diagonalization with overlap
     ethr =  6.00E-04,  avg # of iterations =  1.0

     total cpu time spent up to now is        0.1 secs

     total energy              =     -15.80462642 Ry
     estimated scf accuracy    <       0.05215707 Ry

     iteration #  2     ecut=    12.00 Ry     beta= 0.70
     Davidson diagonalization with overlap
     ethr =  6.52E-04,  avg # of iterations =  1.0

     total cpu time spent up to now is        0.1 secs

     total energy              =     -15.80692204 Ry
     estimated scf accuracy    <       0.00213994 Ry

     iteration #  3     ecut=    12.00 Ry     beta= 0.70
     Davidson diagonalization with overlap
     ethr =  2.67E-05,  avg # of iterations =  2.2

     total cpu time spent up to now is        0.2 secs

     total energy              =     -15.80728872 Ry
     estimated scf accuracy    <       0.00005336 Ry

     iteration #  4     ecut=    12.00 Ry     beta= 0.70
     Davidson diagonalization with overlap
     ethr =  6.67E-07,  avg # of iterations =  3.6

     total cpu time spent up to now is        0.2 secs

     End of self-consistent calculation

          k =-0.1250 0.1250 0.1250 (   172 PWs)   bands (ev):

    -5.4958   4.7079   5.9950   5.9950

          k =-0.3750 0.3750-0.1250 (   187 PWs)   bands (ev):

    -4.4500   1.6484   3.9179   5.4868

          k = 0.3750-0.3750 0.6250 (   182 PWs)   bands (ev):

    -3.2252  -0.5307   3.9659   4.6693

          k = 0.1250-0.1250 0.3750 (   180 PWs)   bands (ev):

    -4.9647   3.0911   4.9222   5.0318

          k =-0.1250 0.6250 0.1250 (   186 PWs)   bands (ev):

    -3.9002   1.3916   3.5375   4.0022

          k = 0.6250-0.1250 0.8750 (   189 PWs)   bands (ev):

    -2.1856  -0.6186   2.0904   3.2223

          k = 0.3750 0.1250 0.6250 (   188 PWs)   bands (ev):

    -3.4633   0.4396   2.8801   4.2917

          k =-0.1250-0.8750 0.1250 (   192 PWs)   bands (ev):

    -2.3776  -0.5126   2.7314   3.5156

          k =-0.3750 0.3750 0.3750 (   183 PWs)   bands (ev):

    -3.9815   0.2906   5.1643   5.1643

          k = 0.3750-0.3750 1.1250 (   184 PWs)   bands (ev):

    -2.7154  -0.3733   2.1816   4.3375

     highest occupied level (ev):     5.9950

!    total energy              =     -15.80731136 Ry
     estimated scf accuracy    <       0.00000045 Ry

     The total energy is the sum of the following terms:
     one-electron contribution =       4.83108654 Ry
     hartree contribution      =       1.06712351 Ry
     xc contribution           =      -4.80576283 Ry
     ewald contribution        =     -16.89975858 Ry

     convergence has been achieved in   4 iterations

     Writing all to output data dir ./tmp/silicon.save/ :
     XML data file, charge density, pseudopotentials, collected wavefunctions

     init_run     :      0.05s CPU      0.05s WALL (       1 calls)
     electrons    :      0.06s CPU      0.07s WALL (       1 calls)

     Called by init_run:
     wfcinit      :      0.02s CPU      0.02s WALL (       1 calls)
     potinit      :      0.01s CPU      0.01s WALL (       1 calls)
     hinit0       :      0.01s CPU      0.01s WALL (       1 calls)

     Called by electrons:
     c_bands      :      0.05s CPU      0.05s WALL (       5 calls)
     sum_band     :      0.01s CPU      0.01s WALL (       5 calls)
     v_of_rho     :      0.00s CPU      0.00s WALL (       5 calls)
     mix_rho      :      0.00s CPU      0.00s WALL (       5 calls)

     Called by c_bands:
     init_us_2    :      0.00s CPU      0.00s WALL (     110 calls)
     cegterg      :      0.04s CPU      0.05s WALL (      50 calls)

     Called by *egterg:
     cdiaghg      :      0.01s CPU      0.02s WALL (     138 calls)
     h_psi        :      0.04s CPU      0.04s WALL (     158 calls)
     g_psi        :      0.00s CPU      0.00s WALL (      98 calls)

     Called by h_psi:
     h_psi:calbec :      0.00s CPU      0.00s WALL (     158 calls)
     vloc_psi     :      0.03s CPU      0.04s WALL (     158 calls)
     add_vuspsi   :      0.00s CPU      0.00s WALL (     158 calls)

     General routines
     calbec       :      0.00s CPU      0.00s WALL (     158 calls)
     fft          :      0.00s CPU      0.00s WALL (      15 calls)
     ffts         :      0.00s CPU      0.00s WALL (       5 calls)
     fftw         :      0.03s CPU      0.04s WALL (    1394 calls)

     Parallel routines

     PWSCF        :      0.17s CPU      0.19s WALL


   This run was terminated on:  17:39:45  10Jun2025            

=------------------------------------------------------------------------------=
   JOB DONE.
=------------------------------------------------------------------------------=
