
     Program PWSCF v.7.4 starts on 10Jun2025 at 17:39:46 

     This program is part of the open-source Quantum ESPRESSO suite
     for quantum simulation of materials; please cite
         "P. Giannozzi et al., J. Phys.:Condens. Matter 21 395502 (2009);
         "P. Giannozzi et al., J. Phys.:Condens. Matter 29 465901 (2017);
         "P. Giannozzi et al., J. Chem. Phys. 152 154105 (2020);
          URL http://www.quantum-espresso.org", 
     in publications or presentations arising from this work. More details at
     http://www.quantum-espresso.org/quote

     Parallel version (MPI), running on     1 processors

     MPI processes distributed on     1 nodes
     6805 MiB available memory on the printing compute node when the environment starts

     Reading input from pw.si.scf_ecut16.in
     Message from routine read_cards :
     DEPRECATED: no units specified in ATOMIC_POSITIONS card
     Message from routine read_cards :
     ATOMIC_POSITIONS: units set to alat

     Current dimensions of program PWSCF are:
     Max number of different atomic species (ntypx) = 10
     Max number of k-points (npk) =  40000
     Max angular momentum in pseudopotentials (lmaxx) =  4

     Subspace diagonalization in iterative solution of the eigenvalue problem:
     a serial algorithm will be used


     G-vector sticks info
     --------------------
     sticks:   dense  smooth     PW     G-vecs:    dense   smooth      PW
     Sum         235     235     85                 2277     2277     531

     Using Slab Decomposition



     bravais-lattice index     =            2
     lattice parameter (alat)  =      10.2000  a.u.
     unit-cell volume          =     265.3020 (a.u.)^3
     number of atoms/cell      =            2
     number of atomic types    =            1
     number of electrons       =         8.00
     number of Kohn-Sham states=            4
     kinetic-energy cutoff     =      16.0000  Ry
     charge density cutoff     =      64.0000  Ry
     scf convergence threshold =      1.0E-06
     mixing beta               =       0.7000
     number of iterations used =            8  plain     mixing
     Exchange-correlation= SLA  PZ   NOGX NOGC
                           (   1   1   0   0   0   0   0)

     celldm(1)=  10.200000  celldm(2)=   0.000000  celldm(3)=   0.000000
     celldm(4)=   0.000000  celldm(5)=   0.000000  celldm(6)=   0.000000

     crystal axes: (cart. coord. in units of alat)
               a(1) = (  -0.500000   0.000000   0.500000 )  
               a(2) = (   0.000000   0.500000   0.500000 )  
               a(3) = (  -0.500000   0.500000   0.000000 )  

     reciprocal axes: (cart. coord. in units 2 pi/alat)
               b(1) = ( -1.000000 -1.000000  1.000000 )  
               b(2) = (  1.000000  1.000000  1.000000 )  
               b(3) = ( -1.000000  1.000000 -1.000000 )  


     PseudoPot. # 1 for Si read from file:
     ../../pseudo/Si.pz-vbc.UPF
     MD5 check sum: a974d1b8727157e37210f3f86afb6210
     Pseudo is Norm-conserving, Zval =  4.0
     Generated by new atomic code, or converted to UPF format
     Using radial grid of  431 points,  2 beta functions with: 
                l(1) =   0
                l(2) =   1

     atomic species   valence    mass     pseudopotential
     Si                4.00    28.08600     Si( 1.00)

     48 Sym. Ops., with inversion, found (24 have fractional translation)



   Cartesian axes

     site n.     atom                  positions (alat units)
         1        Si     tau(   1) = (   0.0000000   0.0000000   0.0000000  )
         2        Si     tau(   2) = (   0.2500000   0.2500000   0.2500000  )

     number of k points=    10
                       cart. coord. in units 2pi/alat
        k(    1) = (  -0.1250000   0.1250000   0.1250000), wk =   0.0625000
        k(    2) = (  -0.3750000   0.3750000  -0.1250000), wk =   0.1875000
        k(    3) = (   0.3750000  -0.3750000   0.6250000), wk =   0.1875000
        k(    4) = (   0.1250000  -0.1250000   0.3750000), wk =   0.1875000
        k(    5) = (  -0.1250000   0.6250000   0.1250000), wk =   0.1875000
        k(    6) = (   0.6250000  -0.1250000   0.8750000), wk =   0.3750000
        k(    7) = (   0.3750000   0.1250000   0.6250000), wk =   0.3750000
        k(    8) = (  -0.1250000  -0.8750000   0.1250000), wk =   0.1875000
        k(    9) = (  -0.3750000   0.3750000   0.3750000), wk =   0.0625000
        k(   10) = (   0.3750000  -0.3750000   1.1250000), wk =   0.1875000

     Dense  grid:     2277 G-vectors     FFT dimensions: (  20,  20,  20)

     Estimated max dynamical RAM per process >       1.85 MB

     Initial potential from superposition of free atoms

     starting charge       7.9990, renormalised to       8.0000
     Starting wfcs are    8 randomized atomic wfcs

     total cpu time spent up to now is        0.1 secs

     Self-consistent Calculation

     iteration #  1     ecut=    16.00 Ry     beta= 0.70
     Davidson diagonalization with overlap
     ethr =  1.00E-02,  avg # of iterations =  2.0

     Threshold (ethr) on eigenvalues was too large:
     Diagonalizing with lowered threshold

     Davidson diagonalization with overlap
     ethr =  6.11E-04,  avg # of iterations =  1.0

     total cpu time spent up to now is        0.2 secs

     total energy              =     -15.83636294 Ry
     estimated scf accuracy    <       0.05367938 Ry

     iteration #  2     ecut=    16.00 Ry     beta= 0.70
     Davidson diagonalization with overlap
     ethr =  6.71E-04,  avg # of iterations =  1.0

     total cpu time spent up to now is        0.2 secs

     total energy              =     -15.83876716 Ry
     estimated scf accuracy    <       0.00217813 Ry

     iteration #  3     ecut=    16.00 Ry     beta= 0.70
     Davidson diagonalization with overlap
     ethr =  2.72E-05,  avg # of iterations =  2.4

     total cpu time spent up to now is        0.2 secs

     total energy              =     -15.83914539 Ry
     estimated scf accuracy    <       0.00006299 Ry

     iteration #  4     ecut=    16.00 Ry     beta= 0.70
     Davidson diagonalization with overlap
     ethr =  7.87E-07,  avg # of iterations =  3.0

     total cpu time spent up to now is        0.2 secs

     total energy              =     -15.83916635 Ry
     estimated scf accuracy    <       0.00000179 Ry

     iteration #  5     ecut=    16.00 Ry     beta= 0.70
     Davidson diagonalization with overlap
     ethr =  2.24E-08,  avg # of iterations =  3.8

     total cpu time spent up to now is        0.2 secs

     End of self-consistent calculation

          k =-0.1250 0.1250 0.1250 (   295 PWs)   bands (ev):

    -5.5986   4.6530   5.9608   5.9608

          k =-0.3750 0.3750-0.1250 (   292 PWs)   bands (ev):

    -4.5261   1.6011   3.8945   5.4667

          k = 0.3750-0.3750 0.6250 (   281 PWs)   bands (ev):

    -3.3189  -0.5722   3.9401   4.6606

          k = 0.1250-0.1250 0.3750 (   293 PWs)   bands (ev):

    -5.0456   3.0253   4.9045   4.9952

          k =-0.1250 0.6250 0.1250 (   289 PWs)   bands (ev):

    -3.9773   1.3246   3.5209   3.9952

          k = 0.6250-0.1250 0.8750 (   283 PWs)   bands (ev):

    -2.2577  -0.6907   2.0852   3.2157

          k = 0.3750 0.1250 0.6250 (   288 PWs)   bands (ev):

    -3.5377   0.3855   2.8615   4.2778

          k =-0.1250-0.8750 0.1250 (   286 PWs)   bands (ev):

    -2.4493  -0.5797   2.7292   3.5111

          k =-0.3750 0.3750 0.3750 (   281 PWs)   bands (ev):

    -4.0659   0.2420   5.1465   5.1465

          k = 0.3750-0.3750 1.1250 (   286 PWs)   bands (ev):

    -2.8120  -0.4282   2.1665   4.3266

     highest occupied level (ev):     5.9608

!    total energy              =     -15.83916742 Ry
     estimated scf accuracy    <       0.00000009 Ry

     The total energy is the sum of the following terms:
     one-electron contribution =       4.79875873 Ry
     hartree contribution      =       1.07520146 Ry
     xc contribution           =      -4.81336903 Ry
     ewald contribution        =     -16.89975858 Ry

     convergence has been achieved in   5 iterations

     Writing all to output data dir ./tmp/silicon.save/ :
     XML data file, charge density, pseudopotentials, collected wavefunctions

     init_run     :      0.06s CPU      0.07s WALL (       1 calls)
     electrons    :      0.11s CPU      0.12s WALL (       1 calls)

     Called by init_run:
     wfcinit      :      0.02s CPU      0.02s WALL (       1 calls)
     potinit      :      0.01s CPU      0.01s WALL (       1 calls)
     hinit0       :      0.02s CPU      0.02s WALL (       1 calls)

     Called by electrons:
     c_bands      :      0.08s CPU      0.09s WALL (       6 calls)
     sum_band     :      0.02s CPU      0.02s WALL (       6 calls)
     v_of_rho     :      0.00s CPU      0.00s WALL (       6 calls)
     mix_rho      :      0.00s CPU      0.00s WALL (       6 calls)

     Called by c_bands:
     init_us_2    :      0.00s CPU      0.00s WALL (     130 calls)
     cegterg      :      0.08s CPU      0.08s WALL (      60 calls)

     Called by *egterg:
     cdiaghg      :      0.02s CPU      0.02s WALL (     182 calls)
     h_psi        :      0.07s CPU      0.08s WALL (     202 calls)
     g_psi        :      0.00s CPU      0.00s WALL (     132 calls)

     Called by h_psi:
     h_psi:calbec :      0.00s CPU      0.00s WALL (     202 calls)
     vloc_psi     :      0.07s CPU      0.07s WALL (     202 calls)
     add_vuspsi   :      0.00s CPU      0.00s WALL (     202 calls)

     General routines
     calbec       :      0.00s CPU      0.00s WALL (     202 calls)
     fft          :      0.01s CPU      0.01s WALL (      18 calls)
     ffts         :      0.00s CPU      0.00s WALL (       6 calls)
     fftw         :      0.07s CPU      0.08s WALL (    1722 calls)

     Parallel routines

     PWSCF        :      0.23s CPU      0.26s WALL


   This run was terminated on:  17:39:46  10Jun2025            

=------------------------------------------------------------------------------=
   JOB DONE.
=------------------------------------------------------------------------------=
