 CRYSTAL
 PRIMVEC
   11.000000000    0.000000000    0.000000000
    0.000000000   11.000000000    0.000000000
    0.000000000    0.000000000    7.000000000
 PRIMCOORD
          12           1
H         5.500000000    7.985639530    3.500000000
C         5.500000000    6.895209220    3.500000000
C         6.708938600    6.198125240    3.500000000
H         7.652991800    6.743094540    3.500000000
C         6.708938600    4.801874700    3.500000000
H         7.652991800    4.256905610    3.500000000
C         5.500000000    4.104790620    3.500000000
H         5.500000000    3.014360430    3.500000000
C         4.291061200    4.801874680    3.500000000
H         3.347008100    4.256905560    3.500000000
C         4.291061300    6.198125280    3.500000000
H         3.347008200    6.743094580    3.500000000
BEGIN_BLOCK_DATAGRID_3D
3D_PWSCF
BEGIN_DATAGRID_3D_UNKNOWN
          97          97          61
  0.000000  0.000000  0.000000
   11.000000    0.000000    0.000000
    0.000000   11.000000    0.000000
    0.000000    0.000000    7.000000
  0.881117E-04  0.880235E-04  0.875968E-04  0.872150E-04 -0.871717E-04 -0.874952E-04
 -0.879209E-04 -0.881848E-04 -0.882156E-04 -0.879660E-04 -0.878576E-04  0.879032E-04
  0.880025E-04  0.878472E-04  0.876642E-04  0.874557E-04  0.872514E-04 -0.874104E-04
 -0.877648E-04 -0.880378E-04  0.879143E-04  0.878644E-04  0.881842E-04 -0.882391E-04
 -0.877678E-04 -0.873305E-04 -0.871296E-04 -0.870617E-04 -0.868970E-04 -0.867398E-04
 -0.868785E-04 -0.873954E-04  0.878351E-04  0.878530E-04  0.875485E-04  0.868893E-04
  0.865025E-04  0.863653E-04  0.865806E-04  0.870584E-04  0.871523E-04 -0.871215E-04
 -0.870146E-04 -0.869597E-04 -0.872143E-04 -0.876670E-04 -0.881028E-04 -0.883519E-04
 -0.884248E-04 -0.883519E-04 -0.881028E-04 -0.876670E-04 -0.872143E-04 -0.869598E-04
 -0.870146E-04 -0.871215E-04  0.871524E-04  0.870585E-04  0.865806E-04  0.863653E-04
  0.865026E-04  0.868893E-04  0.875486E-04  0.878531E-04  0.878351E-04 -0.873954E-04
 -0.868785E-04 -0.867398E-04 -0.868970E-04 -0.870617E-04 -0.871297E-04 -0.873305E-04
 -0.877677E-04 -0.882391E-04  0.881841E-04  0.878644E-04  0.879143E-04 -0.880379E-04
 -0.877648E-04 -0.874105E-04  0.872514E-04  0.874558E-04  0.876643E-04  0.878473E-04
  0.880025E-04  0.879032E-04 -0.878576E-04 -0.879660E-04 -0.882155E-04 -0.881847E-04
 -0.879209E-04 -0.874952E-04 -0.871718E-04  0.872150E-04  0.875969E-04  0.880235E-04
  0.881117E-04  0.878930E-04  0.877906E-04  0.874721E-04  0.872068E-04 -0.871487E-04
 -0.873537E-04 -0.877391E-04 -0.880427E-04 -0.880495E-04 -0.877911E-04 -0.876790E-04
  0.877484E-04  0.878290E-04  0.876944E-04  0.875004E-04  0.873659E-04  0.873645E-04
 -0.875648E-04 -0.877988E-04 -0.879246E-04  0.878234E-04  0.877715E-04  0.879262E-04
  0.879912E-04 -0.876968E-04 -0.872762E-04 -0.870169E-04 -0.870175E-04 -0.869684E-04
 -0.868743E-04 -0.870325E-04  0.874167E-04  0.877584E-04  0.877267E-04  0.873543E-04
  0.868870E-04  0.866173E-04  0.865799E-04  0.868477E-04  0.871633E-04  0.872530E-04
 -0.872422E-04 -0.871808E-04 -0.871628E-04 -0.873076E-04 -0.876241E-04 -0.879041E-04
 -0.880735E-04 -0.881507E-04 -0.880735E-04 -0.879040E-04 -0.876241E-04 -0.873076E-04
 -0.871629E-04 -0.871808E-04 -0.872422E-04  0.872530E-04  0.871633E-04  0.868477E-04
  0.865799E-04  0.866174E-04  0.868871E-04  0.873542E-04  0.877266E-04  0.877583E-04
  0.874167E-04 -0.870324E-04 -0.868743E-04 -0.869684E-04 -0.870176E-04 -0.870170E-04
 -0.872764E-04 -0.876969E-04  0.879912E-04  0.879262E-04  0.877715E-04  0.878235E-04
 -0.879247E-04 -0.877988E-04 -0.875648E-04  0.873645E-04  0.873659E-04  0.875005E-04
  0.876944E-04  0.878290E-04  0.877484E-04 -0.876790E-04 -0.877911E-04 -0.880494E-04
 -0.880426E-04 -0.877391E-04 -0.873537E-04 -0.871486E-04  0.872068E-04  0.874720E-04
  0.877906E-04  0.878930E-04  0.873942E-04  0.873357E-04  0.872358E-04  0.870959E-04
  0.870819E-04 -0.872258E-04 -0.874679E-04 -0.876465E-04 -0.876412E-04 -0.875533E-04
 -0.874783E-04  0.875237E-04  0.875317E-04  0.874753E-04  0.873318E-04  0.873659E-04
  0.876300E-04  0.877427E-04  0.877187E-04  0.876126E-04  0.875239E-04  0.875090E-04
  0.875800E-04  0.876883E-04  0.875529E-04 -0.872203E-04 -0.869272E-04 -0.868421E-04
 -0.868933E-04 -0.869758E-04  0.871936E-04  0.873960E-04  0.875223E-04  0.874486E-04
  0.871440E-04  0.870092E-04  0.868491E-04  0.868521E-04  0.871549E-04  0.873506E-04
  0.875233E-04 -0.876142E-04 -0.876762E-04 -0.876472E-04  0.875914E-04  0.876715E-04
  0.877371E-04  0.877974E-04  0.878325E-04  0.877974E-04  0.877370E-04  0.876715E-04
  0.875914E-04 -0.876473E-04 -0.876762E-04 -0.876142E-04  0.875232E-04  0.873505E-04
  0.871548E-04  0.868521E-04  0.868492E-04  0.870092E-04  0.871440E-04  0.874485E-04
  0.875222E-04  0.873959E-04  0.871935E-04 -0.869757E-04 -0.868933E-04 -0.868422E-04
 -0.869274E-04 -0.872205E-04  0.875530E-04  0.876883E-04  0.875800E-04  0.875090E-04
  0.875239E-04  0.876126E-04  0.877187E-04  0.877427E-04  0.876300E-04  0.873660E-04
  0.873318E-04  0.874753E-04  0.875317E-04  0.875237E-04 -0.874783E-04 -0.875533E-04
 -0.876412E-04 -0.876464E-04 -0.874678E-04 -0.872256E-04  0.870818E-04  0.870958E-04
  0.872357E-04  0.873357E-04  0.873942E-04  0.869897E-04  0.870023E-04  0.870473E-04
  0.869963E-04  0.870793E-04  0.872227E-04  0.873512E-04  0.873971E-04  0.874370E-04
  0.875270E-04  0.874409E-04 -0.874740E-04 -0.875253E-04 -0.875384E-04 -0.874459E-04
 -0.875424E-04  0.877385E-04  0.876458E-04  0.874501E-04  0.872590E-04  0.872284E-04
  0.872839E-04  0.874053E-04  0.874908E-04  0.873620E-04  0.871724E-04  0.870102E-04
  0.868602E-04  0.869266E-04  0.870838E-04  0.872184E-04  0.873220E-04  0.872537E-04
  0.871924E-04 -0.871699E-04 -0.871878E-04 -0.870991E-04 -0.870925E-04 -0.872780E-04
 -0.874734E-04 -0.876592E-04 -0.878673E-04  0.880840E-04  0.879999E-04  0.878442E-04
  0.877117E-04  0.876660E-04  0.877307E-04  0.877171E-04  0.877306E-04  0.876660E-04
  0.877116E-04  0.878442E-04  0.879999E-04  0.880839E-04 -0.878673E-04 -0.876592E-04
 -0.874734E-04 -0.872779E-04 -0.870924E-04 -0.870990E-04 -0.871878E-04 -0.871699E-04
  0.871923E-04  0.872536E-04  0.873219E-04  0.872183E-04  0.870837E-04  0.869266E-04
  0.868603E-04  0.870104E-04  0.871726E-04  0.873620E-04  0.874908E-04  0.874053E-04
  0.872839E-04  0.872284E-04  0.872590E-04  0.874501E-04  0.876458E-04  0.877385E-04
 -0.875425E-04 -0.874458E-04 -0.875383E-04 -0.875252E-04 -0.874740E-04  0.874409E-04
  0.875270E-04  0.874370E-04  0.873970E-04  0.873511E-04  0.872226E-04  0.870791E-04
  0.869962E-04  0.870472E-04  0.870022E-04  0.869897E-04 -0.869687E-04 -0.869870E-04
  0.870498E-04  0.871253E-04  0.872038E-04  0.871829E-04  0.872418E-04  0.873189E-04
  0.874255E-04  0.875700E-04 -0.875768E-04 -0.877187E-04 -0.878310E-04 -0.877095E-04
 -0.875278E-04 -0.875414E-04  0.875846E-04  0.874614E-04  0.871358E-04  0.868925E-04
 -0.870020E-04 -0.871933E-04  0.873155E-04  0.873738E-04  0.874126E-04  0.872545E-04
  0.870467E-04  0.870012E-04  0.870900E-04  0.871890E-04  0.871320E-04  0.871161E-04
  0.871037E-04 -0.871981E-04 -0.874127E-04 -0.874735E-04 -0.874865E-04 -0.875285E-04
 -0.875536E-04 -0.876015E-04 -0.876471E-04 -0.878496E-04  0.880451E-04  0.879934E-04
  0.879318E-04  0.878281E-04  0.877532E-04  0.876942E-04  0.876170E-04  0.876942E-04
  0.877531E-04  0.878281E-04  0.879318E-04  0.879933E-04  0.880451E-04 -0.878496E-04
 -0.876471E-04 -0.876014E-04 -0.875534E-04 -0.875284E-04 -0.874865E-04 -0.874735E-04
 -0.874128E-04 -0.871982E-04  0.871037E-04  0.871160E-04  0.871319E-04  0.871889E-04
  0.870900E-04  0.870013E-04  0.870468E-04  0.872546E-04  0.874126E-04  0.873737E-04
  0.873155E-04 -0.871933E-04 -0.870020E-04  0.868926E-04  0.871359E-04  0.874615E-04
  0.875847E-04 -0.875414E-04 -0.875277E-04 -0.877094E-04 -0.878309E-04 -0.877186E-04
 -0.875767E-04  0.875699E-04  0.874254E-04  0.873188E-04  0.872417E-04  0.871827E-04
  0.872036E-04  0.871253E-04  0.870498E-04 -0.869870E-04 -0.869687E-04 -0.872703E-04
 -0.873029E-04 -0.873438E-04 -0.873914E-04  0.873252E-04  0.871803E-04  0.870815E-04
  0.870936E-04  0.873132E-04  0.875613E-04 -0.877422E-04 -0.878669E-04 -0.879285E-04
 -0.877566E-04 -0.875061E-04 -0.873512E-04  0.873032E-04  0.872039E-04  0.868670E-04
  0.867363E-04 -0.868799E-04 -0.871455E-04 -0.873670E-04  0.874144E-04  0.874664E-04
  0.873427E-04  0.871673E-04  0.872208E-04  0.872606E-04  0.872761E-04  0.871618E-04
  0.870091E-04 -0.870842E-04 -0.873274E-04 -0.876123E-04 -0.876973E-04 -0.876675E-04
 -0.876802E-04 -0.877054E-04 -0.876097E-04 -0.875548E-04 -0.876788E-04  0.877597E-04
  0.878621E-04  0.878704E-04  0.878538E-04  0.878056E-04  0.876420E-04  0.875912E-04
  0.876420E-04  0.878055E-04  0.878537E-04  0.878704E-04  0.878621E-04  0.877597E-04
 -0.876788E-04 -0.875547E-04 -0.876095E-04 -0.877051E-04 -0.876800E-04 -0.876674E-04
 -0.876974E-04 -0.876124E-04 -0.873276E-04 -0.870843E-04  0.870091E-04  0.871617E-04
  0.872761E-04  0.872607E-04  0.872209E-04  0.871674E-04  0.873427E-04  0.874664E-04
  0.874144E-04 -0.873670E-04 -0.871455E-04 -0.868800E-04  0.867365E-04  0.868672E-04
  0.872041E-04  0.873033E-04 -0.873513E-04 -0.875060E-04 -0.877565E-04 -0.879284E-04
 -0.878668E-04 -0.877421E-04  0.875612E-04  0.873130E-04  0.870935E-04  0.870814E-04
  0.871801E-04  0.873251E-04 -0.873914E-04 -0.873439E-04 -0.873030E-04 -0.872703E-04
 -0.876960E-04 -0.877197E-04 -0.877172E-04 -0.876778E-04 -0.874307E-04 -0.871385E-04
  0.868932E-04  0.868894E-04  0.871644E-04  0.873959E-04 -0.876541E-04 -0.877873E-04
 -0.878734E-04 -0.876979E-04 -0.873706E-04 -0.871815E-04  0.871318E-04  0.869793E-04
  0.867960E-04  0.868740E-04 -0.869964E-04 -0.872821E-04 -0.875878E-04 -0.876458E-04
 -0.874697E-04  0.873200E-04  0.872274E-04  0.872312E-04  0.872895E-04  0.872865E-04
  0.872447E-04 -0.871003E-04 -0.871126E-04 -0.873778E-04 -0.876364E-04 -0.877039E-04
 -0.877385E-04 -0.878077E-04 -0.878095E-04 -0.876000E-04 -0.874723E-04 -0.875367E-04
  0.875617E-04  0.876873E-04  0.876836E-04  0.876300E-04  0.875386E-04  0.873886E-04
  0.873832E-04  0.873885E-04  0.875385E-04  0.876299E-04  0.876836E-04  0.876873E-04
  0.875617E-04 -0.875367E-04 -0.874721E-04 -0.875997E-04 -0.878092E-04 -0.878075E-04
 -0.877383E-04 -0.877040E-04 -0.876366E-04 -0.873780E-04 -0.871127E-04 -0.871003E-04
  0.872446E-04  0.872865E-04  0.872896E-04  0.872314E-04  0.872275E-04  0.873200E-04
 -0.874697E-04 -0.876458E-04 -0.875878E-04 -0.872822E-04 -0.869966E-04  0.868743E-04
  0.867963E-04  0.869795E-04  0.871319E-04 -0.871815E-04 -0.873705E-04 -0.876978E-04
 -0.878733E-04 -0.877871E-04 -0.876540E-04  0.873958E-04  0.871642E-04  0.868893E-04
  0.868931E-04 -0.871384E-04 -0.874306E-04 -0.876779E-04 -0.877173E-04 -0.877198E-04
 -0.876960E-04 -0.878075E-04 -0.878224E-04 -0.878157E-04 -0.878137E-04 -0.876132E-04
 -0.872275E-04 -0.868902E-04  0.868405E-04  0.870161E-04  0.872413E-04  0.875334E-04
 -0.877174E-04 -0.878094E-04 -0.875557E-04 -0.872489E-04 -0.871909E-04  0.871247E-04
  0.869472E-04  0.868964E-04  0.870092E-04 -0.872712E-04 -0.876684E-04 -0.878539E-04
 -0.878969E-04 -0.877024E-04 -0.875269E-04 -0.873331E-04 -0.871355E-04 -0.872086E-04
 -0.872465E-04 -0.872309E-04 -0.871597E-04 -0.871277E-04 -0.872315E-04 -0.872776E-04
  0.872871E-04  0.875249E-04  0.877481E-04  0.876716E-04 -0.874683E-04 -0.873805E-04
 -0.874855E-04 -0.875553E-04  0.875086E-04  0.874494E-04 -0.873255E-04 -0.872163E-04
 -0.871653E-04 -0.871287E-04 -0.871652E-04 -0.872162E-04 -0.873254E-04  0.874494E-04
  0.875086E-04 -0.875553E-04 -0.874855E-04 -0.873804E-04 -0.874680E-04  0.876714E-04
  0.877478E-04  0.875248E-04  0.872872E-04 -0.872777E-04 -0.872317E-04 -0.871278E-04
 -0.871597E-04 -0.872309E-04 -0.872464E-04 -0.872086E-04 -0.871356E-04 -0.873333E-04
 -0.875270E-04 -0.877024E-04 -0.878968E-04 -0.878539E-04 -0.876685E-04 -0.872714E-04
  0.870095E-04  0.868967E-04  0.869474E-04  0.871248E-04 -0.871909E-04 -0.872487E-04
 -0.875555E-04 -0.878092E-04 -0.877172E-04  0.875333E-04  0.872412E-04  0.870160E-04
  0.868404E-04 -0.868901E-04 -0.872274E-04 -0.876132E-04 -0.878139E-04 -0.878159E-04
 -0.878225E-04 -0.878075E-04 -0.876346E-04 -0.876764E-04 -0.877430E-04 -0.877595E-04
 -0.876987E-04 -0.874384E-04 -0.870812E-04 -0.868917E-04  0.869935E-04  0.872956E-04
  0.874870E-04  0.875790E-04  0.876372E-04  0.874982E-04  0.873278E-04  0.872574E-04
  0.871746E-04  0.871646E-04  0.872427E-04  0.873157E-04 -0.875604E-04 -0.878715E-04
 -0.879376E-04 -0.878468E-04 -0.876577E-04 -0.875124E-04 -0.874475E-04 -0.873993E-04
 -0.873512E-04 -0.872613E-04 -0.871577E-04 -0.870616E-04 -0.870569E-04 -0.870581E-04
  0.870584E-04  0.871373E-04  0.873029E-04  0.874647E-04  0.874053E-04  0.873180E-04
  0.873699E-04  0.874853E-04  0.875581E-04  0.874511E-04 -0.873479E-04 -0.871477E-04
 -0.870767E-04 -0.872168E-04 -0.872351E-04 -0.872168E-04 -0.870766E-04 -0.871477E-04
 -0.873479E-04  0.874511E-04  0.875582E-04  0.874854E-04  0.873698E-04  0.873178E-04
  0.874051E-04  0.874645E-04  0.873028E-04  0.871373E-04  0.870584E-04 -0.870582E-04
 -0.870569E-04 -0.870616E-04 -0.871576E-04 -0.872612E-04 -0.873511E-04 -0.873993E-04
 -0.874475E-04 -0.875125E-04 -0.876577E-04 -0.878468E-04 -0.879375E-04 -0.878715E-04
 -0.875605E-04  0.873159E-04  0.872429E-04  0.871647E-04  0.871747E-04  0.872574E-04
  0.873277E-04  0.874981E-04  0.876371E-04  0.875789E-04  0.874869E-04  0.872955E-04
  0.869935E-04 -0.868916E-04 -0.870811E-04 -0.874383E-04 -0.876987E-04 -0.877596E-04
 -0.877431E-04 -0.876765E-04 -0.876346E-04  0.875774E-04  0.875832E-04  0.877019E-04
 -0.877430E-04 -0.877246E-04 -0.876058E-04 -0.873716E-04 -0.871967E-04  0.871806E-04
  0.873043E-04  0.873819E-04  0.875226E-04  0.875796E-04  0.874762E-04  0.872406E-04
  0.871451E-04  0.872339E-04  0.873687E-04 -0.875570E-04 -0.877238E-04  0.877937E-04
  0.878261E-04  0.878678E-04  0.876929E-04 -0.874763E-04 -0.873686E-04 -0.875165E-04
 -0.877356E-04 -0.875919E-04 -0.872921E-04 -0.870499E-04 -0.869068E-04 -0.868819E-04
  0.869108E-04  0.869738E-04  0.870694E-04  0.871734E-04  0.873660E-04  0.874475E-04
  0.873824E-04  0.874491E-04  0.875050E-04  0.874844E-04  0.874307E-04  0.873362E-04
 -0.871487E-04 -0.869960E-04 -0.870138E-04 -0.870387E-04 -0.870138E-04 -0.869960E-04
 -0.871487E-04  0.873362E-04  0.874307E-04  0.874844E-04  0.875050E-04  0.874490E-04
  0.873823E-04  0.874474E-04  0.873659E-04  0.871733E-04  0.870693E-04  0.869738E-04
  0.869107E-04 -0.868818E-04 -0.869067E-04 -0.870497E-04 -0.872919E-04 -0.875918E-04
 -0.877356E-04 -0.875165E-04 -0.873686E-04 -0.874763E-04  0.876928E-04  0.878677E-04
  0.878261E-04  0.877937E-04 -0.877239E-04 -0.875572E-04  0.873688E-04  0.872340E-04
  0.871451E-04  0.872406E-04  0.874762E-04  0.875796E-04  0.875225E-04  0.873819E-04
  0.873042E-04  0.871807E-04 -0.871967E-04 -0.873716E-04 -0.876058E-04 -0.877246E-04
 -0.877431E-04  0.877020E-04  0.875832E-04  0.875774E-04  0.875845E-04  0.876295E-04
  0.877886E-04  0.877936E-04  0.877528E-04 -0.877633E-04 -0.877267E-04 -0.875745E-04
 -0.873448E-04  0.872905E-04  0.873891E-04  0.875890E-04  0.876651E-04  0.875439E-04
  0.872218E-04  0.871025E-04 -0.871864E-04 -0.873126E-04 -0.876437E-04 -0.879324E-04
  0.879665E-04  0.878504E-04  0.876868E-04  0.873467E-04  0.871278E-04  0.872831E-04
 -0.877284E-04 -0.880033E-04 -0.878758E-04 -0.874821E-04 -0.871246E-04  0.870078E-04
  0.868586E-04  0.867953E-04  0.868196E-04  0.869049E-04  0.871385E-04  0.873621E-04
  0.875168E-04  0.875073E-04  0.874746E-04  0.874687E-04  0.874753E-04  0.875700E-04
  0.874837E-04  0.872379E-04  0.870167E-04  0.869285E-04  0.869505E-04  0.869285E-04
  0.870167E-04  0.872379E-04  0.874837E-04  0.875700E-04  0.874753E-04  0.874688E-04
  0.874746E-04  0.875073E-04  0.875167E-04  0.873621E-04  0.871385E-04  0.869048E-04
  0.868195E-04  0.867951E-04  0.868584E-04  0.870076E-04 -0.871244E-04 -0.874819E-04
 -0.878757E-04 -0.880033E-04 -0.877284E-04  0.872831E-04  0.871278E-04  0.873466E-04
  0.876867E-04  0.878504E-04  0.879665E-04 -0.879325E-04 -0.876438E-04 -0.873126E-04
 -0.871864E-04  0.871025E-04  0.872218E-04  0.875440E-04  0.876651E-04  0.875889E-04
  0.873890E-04  0.872904E-04 -0.873449E-04 -0.875746E-04 -0.877269E-04 -0.877634E-04
  0.877529E-04  0.877937E-04  0.877886E-04  0.876295E-04  0.875845E-04  0.876177E-04
  0.877697E-04  0.879564E-04  0.878429E-04  0.876614E-04  0.877281E-04 -0.878286E-04
 -0.876481E-04 -0.873651E-04  0.873466E-04  0.874856E-04  0.877157E-04  0.878978E-04
  0.877483E-04  0.874056E-04 -0.871699E-04 -0.870859E-04 -0.872539E-04 -0.876387E-04
 -0.878646E-04 -0.879108E-04  0.877910E-04  0.874235E-04  0.869737E-04  0.868009E-04
  0.871601E-04  0.878060E-04  0.881882E-04  0.881967E-04  0.878237E-04  0.874075E-04
  0.871986E-04  0.869376E-04  0.868364E-04  0.869612E-04  0.871708E-04  0.873504E-04
  0.873564E-04  0.874195E-04  0.875379E-04  0.875520E-04  0.875107E-04  0.875083E-04
  0.876818E-04  0.876926E-04  0.874091E-04  0.871652E-04  0.870421E-04  0.870043E-04
  0.870421E-04  0.871653E-04  0.874092E-04  0.876926E-04  0.876818E-04  0.875083E-04
  0.875107E-04  0.875521E-04  0.875379E-04  0.874195E-04  0.873563E-04  0.873504E-04
  0.871708E-04  0.869612E-04  0.868363E-04  0.869375E-04  0.871984E-04  0.874074E-04
  0.878236E-04  0.881965E-04  0.881882E-04  0.878059E-04  0.871600E-04  0.868009E-04
  0.869736E-04  0.874235E-04  0.877910E-04 -0.879109E-04 -0.878647E-04 -0.876388E-04
 -0.872539E-04 -0.870859E-04 -0.871700E-04  0.874056E-04  0.877484E-04  0.878978E-04
  0.877156E-04  0.874856E-04  0.873466E-04 -0.873652E-04 -0.876483E-04 -0.878288E-04
  0.877283E-04  0.876615E-04  0.878430E-04  0.879565E-04  0.877697E-04  0.876177E-04
 -0.877621E-04 -0.878561E-04  0.879632E-04  0.878953E-04  0.876470E-04  0.876140E-04
  0.876213E-04 -0.874511E-04 -0.872897E-04 -0.872665E-04  0.874405E-04  0.877716E-04
  0.879891E-04  0.877648E-04 -0.874783E-04 -0.872174E-04 -0.870977E-04 -0.872601E-04
 -0.875387E-04 -0.877716E-04 -0.877940E-04  0.875744E-04  0.871788E-04  0.868768E-04
  0.869409E-04  0.872781E-04  0.877211E-04  0.881543E-04  0.882780E-04  0.880098E-04
  0.876158E-04  0.872313E-04  0.870582E-04  0.870928E-04 -0.872226E-04 -0.873839E-04
 -0.874235E-04 -0.874618E-04  0.875563E-04  0.876932E-04  0.877176E-04  0.875983E-04
  0.875622E-04  0.876513E-04  0.876941E-04  0.875015E-04  0.872722E-04  0.871310E-04
  0.870498E-04  0.871311E-04  0.872723E-04  0.875016E-04  0.876942E-04  0.876513E-04
  0.875623E-04  0.875984E-04  0.877177E-04  0.876932E-04  0.875564E-04 -0.874618E-04
 -0.874235E-04 -0.873839E-04 -0.872226E-04  0.870929E-04  0.870582E-04  0.872312E-04
  0.876157E-04  0.880097E-04  0.882779E-04  0.881542E-04  0.877210E-04  0.872780E-04
  0.869408E-04  0.868767E-04  0.871787E-04  0.875743E-04 -0.877941E-04 -0.877717E-04
 -0.875388E-04 -0.872602E-04 -0.870978E-04 -0.872174E-04 -0.874783E-04  0.877648E-04
  0.879891E-04  0.877716E-04  0.874405E-04 -0.872666E-04 -0.872899E-04 -0.874513E-04
  0.876215E-04  0.876142E-04  0.876472E-04  0.878955E-04  0.879634E-04 -0.878562E-04
 -0.877621E-04 -0.880908E-04 -0.880862E-04 -0.880108E-04  0.878693E-04  0.876508E-04
  0.876010E-04  0.874339E-04 -0.871862E-04 -0.870528E-04 -0.870327E-04 -0.873014E-04
 -0.875816E-04 -0.876862E-04 -0.875961E-04 -0.874303E-04 -0.871609E-04 -0.871112E-04
 -0.872882E-04 -0.875357E-04 -0.878041E-04 -0.877722E-04 -0.875143E-04  0.872673E-04
  0.870968E-04  0.871752E-04  0.874256E-04  0.877243E-04  0.880688E-04  0.881976E-04
  0.879820E-04  0.875950E-04  0.872640E-04  0.872659E-04 -0.874168E-04 -0.875091E-04
 -0.875352E-04 -0.874544E-04 -0.874985E-04 -0.876074E-04  0.877430E-04  0.877508E-04
  0.876124E-04  0.875965E-04  0.875692E-04  0.875502E-04  0.874783E-04  0.872977E-04
  0.871891E-04  0.871557E-04  0.871891E-04  0.872978E-04  0.874784E-04  0.875503E-04
  0.875692E-04  0.875966E-04  0.876125E-04  0.877510E-04  0.877432E-04 -0.876075E-04
 -0.874986E-04 -0.874544E-04 -0.875353E-04 -0.875093E-04 -0.874169E-04  0.872660E-04
  0.872640E-04  0.875950E-04  0.879819E-04  0.881975E-04  0.880687E-04  0.877241E-04
  0.874254E-04  0.871750E-04  0.870967E-04  0.872673E-04 -0.875143E-04 -0.877723E-04
 -0.878041E-04 -0.875357E-04 -0.872883E-04 -0.871113E-04 -0.871610E-04 -0.874303E-04
 -0.875960E-04 -0.876862E-04 -0.875816E-04 -0.873014E-04 -0.870328E-04 -0.870530E-04
 -0.871864E-04  0.874342E-04  0.876013E-04  0.876511E-04  0.878695E-04 -0.880110E-04
 -0.880863E-04 -0.880908E-04 -0.883446E-04 -0.882560E-04 -0.879799E-04  0.876813E-04
  0.875449E-04  0.875586E-04  0.873758E-04 -0.871107E-04 -0.869698E-04 -0.869701E-04
 -0.870967E-04 -0.871948E-04 -0.873163E-04 -0.874308E-04 -0.873329E-04 -0.871323E-04
 -0.871007E-04 -0.872495E-04 -0.875550E-04 -0.877766E-04 -0.877802E-04 -0.876479E-04
 -0.875496E-04 -0.874673E-04 -0.874599E-04 -0.876170E-04  0.878261E-04  0.879589E-04
  0.880210E-04  0.877739E-04  0.874293E-04  0.874113E-04 -0.875181E-04 -0.876229E-04
 -0.876481E-04 -0.875382E-04 -0.874067E-04 -0.873996E-04 -0.874607E-04  0.874941E-04
  0.874639E-04  0.874650E-04  0.874858E-04  0.874692E-04  0.874875E-04  0.875099E-04
  0.873675E-04  0.871685E-04  0.871116E-04  0.871685E-04  0.873675E-04  0.875099E-04
  0.874875E-04  0.874692E-04  0.874859E-04  0.874651E-04  0.874641E-04  0.874942E-04
 -0.874608E-04 -0.873998E-04 -0.874068E-04 -0.875383E-04 -0.876482E-04 -0.876229E-04
 -0.875182E-04  0.874114E-04  0.874293E-04  0.877738E-04  0.880209E-04  0.879588E-04
  0.878259E-04 -0.876169E-04 -0.874598E-04 -0.874672E-04 -0.875496E-04 -0.876479E-04
 -0.877802E-04 -0.877767E-04 -0.875550E-04 -0.872495E-04 -0.871007E-04 -0.871323E-04
 -0.873329E-04 -0.874308E-04 -0.873163E-04 -0.871947E-04 -0.870966E-04 -0.869701E-04
 -0.869699E-04 -0.871109E-04  0.873760E-04  0.875589E-04  0.875451E-04  0.876815E-04
 -0.879800E-04 -0.882561E-04 -0.883446E-04 -0.883206E-04 -0.881305E-04 -0.877531E-04
  0.874464E-04  0.873877E-04  0.873969E-04  0.873292E-04  0.872236E-04 -0.871200E-04
 -0.870901E-04 -0.869651E-04 -0.869617E-04 -0.871073E-04 -0.871945E-04  0.871558E-04
  0.871829E-04  0.871728E-04  0.872316E-04  0.874882E-04  0.876315E-04  0.877304E-04
 -0.877353E-04 -0.876953E-04 -0.876616E-04 -0.877028E-04 -0.877376E-04 -0.877627E-04
 -0.878061E-04 -0.878793E-04 -0.877198E-04 -0.875066E-04 -0.876001E-04 -0.876875E-04
 -0.876822E-04 -0.876122E-04 -0.874551E-04 -0.873433E-04 -0.873804E-04  0.874685E-04
  0.874606E-04  0.874407E-04  0.875711E-04 -0.876467E-04 -0.877460E-04 -0.877931E-04
 -0.877524E-04 -0.875154E-04 -0.871432E-04 -0.870339E-04 -0.871432E-04 -0.875153E-04
 -0.877524E-04 -0.877931E-04 -0.877460E-04 -0.876467E-04  0.875712E-04  0.874409E-04
  0.874608E-04  0.874687E-04 -0.873806E-04 -0.873435E-04 -0.874552E-04 -0.876123E-04
 -0.876822E-04 -0.876876E-04 -0.876002E-04 -0.875067E-04 -0.877198E-04 -0.878792E-04
 -0.878060E-04 -0.877626E-04 -0.877375E-04 -0.877028E-04 -0.876616E-04 -0.876954E-04
 -0.877354E-04  0.877305E-04  0.876315E-04  0.874882E-04  0.872316E-04  0.871727E-04
  0.871828E-04  0.871559E-04 -0.871946E-04 -0.871074E-04 -0.869616E-04 -0.869650E-04
 -0.870901E-04 -0.871201E-04  0.872238E-04  0.873294E-04  0.873971E-04  0.873878E-04
  0.874465E-04 -0.877532E-04 -0.881306E-04 -0.883206E-04 -0.881933E-04 -0.880460E-04
 -0.877732E-04  0.874320E-04  0.872578E-04  0.871865E-04  0.871805E-04  0.872205E-04
  0.871992E-04 -0.871921E-04 -0.870370E-04 -0.869771E-04 -0.870030E-04 -0.870562E-04
  0.870743E-04  0.871455E-04  0.872615E-04  0.874398E-04  0.875173E-04  0.875035E-04
  0.876260E-04  0.877290E-04 -0.877380E-04 -0.876354E-04 -0.876343E-04 -0.875623E-04
 -0.875682E-04 -0.877269E-04 -0.878327E-04 -0.877568E-04 -0.875681E-04 -0.874974E-04
 -0.875265E-04 -0.874671E-04 -0.874222E-04  0.873686E-04  0.873036E-04  0.873991E-04
  0.874595E-04  0.874732E-04  0.875221E-04  0.877120E-04  0.878434E-04 -0.879040E-04
 -0.878682E-04 -0.877859E-04 -0.875357E-04 -0.871738E-04 -0.870836E-04 -0.871738E-04
 -0.875356E-04 -0.877859E-04 -0.878681E-04 -0.879039E-04  0.878434E-04  0.877121E-04
  0.875223E-04  0.874735E-04  0.874598E-04  0.873994E-04  0.873038E-04  0.873687E-04
 -0.874223E-04 -0.874671E-04 -0.875265E-04 -0.874974E-04 -0.875681E-04 -0.877568E-04
 -0.878326E-04 -0.877268E-04 -0.875681E-04 -0.875622E-04 -0.876343E-04 -0.876355E-04
 -0.877381E-04  0.877291E-04  0.876261E-04  0.875035E-04  0.875172E-04  0.874396E-04
  0.872614E-04  0.871455E-04  0.870744E-04 -0.870563E-04 -0.870030E-04 -0.869771E-04
 -0.870369E-04 -0.871920E-04  0.871993E-04  0.872207E-04  0.871807E-04  0.871866E-04
  0.872579E-04  0.874321E-04 -0.877732E-04 -0.880461E-04 -0.881933E-04  0.881001E-04
  0.880271E-04  0.878655E-04  0.875748E-04 -0.873051E-04 -0.871059E-04  0.869736E-04
  0.869490E-04  0.870835E-04  0.872061E-04  0.871880E-04  0.872205E-04 -0.871851E-04
  0.871227E-04  0.870413E-04  0.870760E-04  0.873548E-04  0.876541E-04  0.875765E-04
  0.874307E-04  0.874077E-04  0.874079E-04 -0.874562E-04 -0.874627E-04 -0.874497E-04
 -0.873360E-04 -0.873547E-04 -0.875053E-04 -0.876896E-04 -0.877375E-04 -0.875796E-04
 -0.873928E-04  0.873445E-04  0.872962E-04  0.873012E-04  0.872863E-04  0.872502E-04
  0.874266E-04  0.875703E-04  0.876238E-04  0.876228E-04  0.877945E-04  0.879678E-04
  0.878899E-04 -0.877500E-04 -0.876650E-04 -0.875570E-04 -0.873946E-04 -0.873232E-04
 -0.873946E-04 -0.875569E-04 -0.876650E-04 -0.877499E-04  0.878898E-04  0.879677E-04
  0.877945E-04  0.876229E-04  0.876241E-04  0.875707E-04  0.874269E-04  0.872504E-04
  0.872864E-04  0.873012E-04  0.872961E-04  0.873445E-04 -0.873928E-04 -0.875795E-04
 -0.877374E-04 -0.876895E-04 -0.875053E-04 -0.873546E-04 -0.873359E-04 -0.874497E-04
 -0.874628E-04 -0.874563E-04  0.874081E-04  0.874077E-04  0.874307E-04  0.875763E-04
  0.876539E-04  0.873547E-04  0.870760E-04  0.870414E-04  0.871229E-04 -0.871852E-04
  0.872205E-04  0.871879E-04  0.872060E-04  0.870835E-04  0.869491E-04  0.869737E-04
 -0.871059E-04 -0.873051E-04  0.875748E-04  0.878655E-04  0.880272E-04  0.881001E-04
  0.879456E-04  0.879001E-04  0.877349E-04 -0.875414E-04 -0.872485E-04 -0.869885E-04
 -0.868537E-04  0.867019E-04  0.868047E-04  0.869876E-04  0.872408E-04  0.875722E-04
 -0.876056E-04 -0.873512E-04 -0.870903E-04  0.871668E-04  0.875337E-04  0.877310E-04
  0.875232E-04  0.872854E-04  0.871241E-04  0.870628E-04 -0.871595E-04 -0.872498E-04
 -0.871210E-04 -0.870062E-04 -0.870532E-04 -0.871768E-04 -0.874969E-04 -0.876669E-04
 -0.876214E-04  0.874369E-04  0.873131E-04  0.873462E-04  0.874004E-04  0.874091E-04
  0.873420E-04  0.873995E-04  0.875827E-04  0.876326E-04  0.876118E-04  0.878241E-04
  0.880603E-04  0.879550E-04  0.877675E-04  0.876244E-04  0.874977E-04  0.873686E-04
  0.872509E-04  0.873686E-04  0.874977E-04  0.876243E-04  0.877673E-04  0.879548E-04
  0.880601E-04  0.878240E-04  0.876119E-04  0.876329E-04  0.875830E-04  0.873998E-04
  0.873422E-04  0.874092E-04  0.874003E-04  0.873461E-04  0.873130E-04  0.874368E-04
 -0.876213E-04 -0.876668E-04 -0.874968E-04 -0.871767E-04 -0.870531E-04 -0.870062E-04
 -0.871210E-04 -0.872498E-04 -0.871595E-04  0.870629E-04  0.871241E-04  0.872852E-04
  0.875230E-04  0.877308E-04  0.875336E-04  0.871668E-04 -0.870904E-04 -0.873513E-04
 -0.876057E-04  0.875722E-04  0.872407E-04  0.869876E-04  0.868047E-04  0.867019E-04
 -0.868538E-04 -0.869885E-04 -0.872484E-04 -0.875413E-04  0.877349E-04  0.879001E-04
  0.879456E-04  0.875975E-04  0.875773E-04  0.874441E-04 -0.873632E-04 -0.871414E-04
 -0.869085E-04 -0.868287E-04 -0.866738E-04  0.866594E-04  0.868148E-04  0.872526E-04
  0.877039E-04 -0.878694E-04 -0.877398E-04 -0.874274E-04 -0.873747E-04 -0.876734E-04
  0.877847E-04  0.875287E-04 -0.871502E-04 -0.868614E-04 -0.868209E-04 -0.869360E-04
  0.870180E-04  0.869073E-04  0.869223E-04  0.870192E-04 -0.871542E-04  0.873689E-04
  0.874214E-04  0.874278E-04  0.873571E-04  0.873198E-04  0.874766E-04  0.875804E-04
  0.875197E-04  0.873971E-04  0.874441E-04  0.876444E-04  0.875968E-04  0.875465E-04
  0.876800E-04  0.878721E-04  0.878261E-04  0.876570E-04  0.875821E-04  0.874681E-04
  0.873654E-04  0.872916E-04  0.873654E-04  0.874681E-04  0.875820E-04  0.876568E-04
  0.878259E-04  0.878720E-04  0.876800E-04  0.875466E-04  0.875970E-04  0.876446E-04
  0.874444E-04  0.873972E-04  0.875198E-04  0.875803E-04  0.874764E-04  0.873196E-04
  0.873569E-04  0.874276E-04  0.874213E-04 -0.873688E-04 -0.871540E-04  0.870191E-04
  0.869222E-04  0.869073E-04  0.870180E-04 -0.869360E-04 -0.868209E-04 -0.868613E-04
 -0.871501E-04  0.875285E-04  0.877846E-04 -0.876733E-04 -0.873747E-04 -0.874275E-04
 -0.877399E-04 -0.878694E-04  0.877039E-04  0.872525E-04  0.868148E-04  0.866595E-04
 -0.866739E-04 -0.868288E-04 -0.869085E-04 -0.871413E-04 -0.873631E-04  0.874441E-04
  0.875772E-04  0.875975E-04  0.873750E-04  0.873099E-04  0.871759E-04 -0.871291E-04
 -0.870513E-04 -0.869746E-04 -0.869015E-04 -0.868093E-04 -0.867492E-04  0.868376E-04
  0.872414E-04 -0.877297E-04 -0.880756E-04 -0.880476E-04 -0.877581E-04 -0.876422E-04
 -0.877778E-04 -0.877504E-04 -0.875515E-04 -0.872059E-04 -0.868606E-04 -0.867639E-04
 -0.868394E-04 -0.869621E-04  0.870465E-04  0.871331E-04  0.871941E-04  0.872901E-04
  0.872580E-04  0.872588E-04  0.873249E-04  0.873871E-04  0.874793E-04  0.876279E-04
  0.876974E-04  0.874782E-04  0.872949E-04  0.873771E-04  0.876081E-04  0.876680E-04
  0.876584E-04  0.876012E-04  0.875784E-04  0.875446E-04  0.874700E-04  0.875190E-04
  0.874999E-04  0.874258E-04  0.873881E-04  0.874258E-04  0.874998E-04  0.875189E-04
  0.874699E-04  0.875445E-04  0.875784E-04  0.876012E-04  0.876585E-04  0.876682E-04
  0.876083E-04  0.873773E-04  0.872950E-04  0.874783E-04  0.876974E-04  0.876279E-04
  0.874792E-04  0.873870E-04  0.873248E-04  0.872587E-04  0.872579E-04  0.872900E-04
  0.871941E-04  0.871331E-04  0.870464E-04 -0.869620E-04 -0.868393E-04 -0.867639E-04
 -0.868604E-04 -0.872057E-04 -0.875513E-04 -0.877503E-04 -0.877777E-04 -0.876422E-04
 -0.877582E-04 -0.880477E-04 -0.880756E-04 -0.877297E-04  0.872414E-04  0.868376E-04
 -0.867493E-04 -0.868094E-04 -0.869016E-04 -0.869746E-04 -0.870512E-04 -0.871290E-04
  0.871758E-04  0.873099E-04  0.873750E-04  0.872791E-04  0.872019E-04  0.871019E-04