
     Program PWSCF v.7.4 starts on 10Jun2025 at 15:22:11 

     This program is part of the open-source Quantum ESPRESSO suite
     for quantum simulation of materials; please cite
         "P. Giannozzi et al., J. Phys.:Condens. Matter 21 395502 (2009);
         "P. Giannozzi et al., J. Phys.:Condens. Matter 29 465901 (2017);
         "P. Giannozzi et al., J. Chem. Phys. 152 154105 (2020);
          URL http://www.quantum-espresso.org", 
     in publications or presentations arising from this work. More details at
     http://www.quantum-espresso.org/quote

     Parallel version (MPI), running on     1 processors

     MPI processes distributed on     1 nodes
     7037 MiB available memory on the printing compute node when the environment starts

     Reading input from pw.benzene.scf.in

     Current dimensions of program PWSCF are:
     Max number of different atomic species (ntypx) = 10
     Max number of k-points (npk) =  40000
     Max angular momentum in pseudopotentials (lmaxx) =  4
     file C.pbe-rrkjus.UPF: wavefunction(s)  2S 2P renormalized
     file H.pbe-rrkjus.UPF: wavefunction(s)  1S renormalized

     gamma-point specific algorithms are used

     Subspace diagonalization in iterative solution of the eigenvalue problem:
     a serial algorithm will be used


     G-vector sticks info
     --------------------
     sticks:   dense  smooth     PW     G-vecs:    dense   smooth      PW
     Sum        6869    2749    681               273079    69025    8635

     Using Slab Decomposition



     bravais-lattice index     =            6
     lattice parameter (alat)  =      20.7870  a.u.
     unit-cell volume          =    5715.8393 (a.u.)^3
     number of atoms/cell      =           12
     number of atomic types    =            2
     number of electrons       =        30.00
     number of Kohn-Sham states=           16
     kinetic-energy cutoff     =      20.0000  Ry
     charge density cutoff     =     200.0000  Ry
     scf convergence threshold =      1.0E-06
     mixing beta               =       0.7000
     number of iterations used =            8  plain     mixing
     Exchange-correlation=  SLA  PW   PBE  PBE
                           (   1   4   3   4   0   0   0)
     Assuming isolated system, Martyna-Tuckerman method


     celldm(1)=  20.786987  celldm(2)=   0.000000  celldm(3)=   0.636364
     celldm(4)=   0.000000  celldm(5)=   0.000000  celldm(6)=   0.000000

     crystal axes: (cart. coord. in units of alat)
               a(1) = (   1.000000   0.000000   0.000000 )  
               a(2) = (   0.000000   1.000000   0.000000 )  
               a(3) = (   0.000000   0.000000   0.636364 )  

     reciprocal axes: (cart. coord. in units 2 pi/alat)
               b(1) = (  1.000000  0.000000  0.000000 )  
               b(2) = (  0.000000  1.000000  0.000000 )  
               b(3) = (  0.000000  0.000000  1.571429 )  


     PseudoPot. # 1 for C  read from file:
     ../pseudo/C.pbe-rrkjus.UPF
     MD5 check sum: 00fb224312de0c5b6853bd333518df6f
     Pseudo is Ultrasoft, Zval =  4.0
     Generated by new atomic code, or converted to UPF format
     Using radial grid of  627 points,  4 beta functions with: 
                l(1) =   0
                l(2) =   0
                l(3) =   1
                l(4) =   1
     Q(r) pseudized with 0 coefficients 


     PseudoPot. # 2 for H  read from file:
     ../pseudo/H.pbe-rrkjus.UPF
     MD5 check sum: 7cc9d459525c9a0585f487a71c3c9563
     Pseudo is Ultrasoft, Zval =  1.0
     Generated by new atomic code, or converted to UPF format
     Using radial grid of 1061 points,  2 beta functions with: 
                l(1) =   0
                l(2) =   0
     Q(r) pseudized with 0 coefficients 


     atomic species   valence    mass     pseudopotential
     C                 4.00     1.00000     C ( 1.00)
     H                 1.00     1.00000     H ( 1.00)

      8 Sym. Ops., with inversion, found



   Cartesian axes

     site n.     atom                  positions (alat units)
         1        H      tau(   1) = (   0.5000000   0.7259672   0.3181818  )
         2        C      tau(   2) = (   0.5000000   0.6268372   0.3181818  )
         3        C      tau(   3) = (   0.6099035   0.5634659   0.3181818  )
         4        H      tau(   4) = (   0.6957265   0.6130086   0.3181818  )
         5        C      tau(   5) = (   0.6099035   0.4365341   0.3181818  )
         6        H      tau(   6) = (   0.6957265   0.3869914   0.3181818  )
         7        C      tau(   7) = (   0.5000000   0.3731628   0.3181818  )
         8        H      tau(   8) = (   0.5000000   0.2740328   0.3181818  )
         9        C      tau(   9) = (   0.3900965   0.4365341   0.3181818  )
        10        H      tau(  10) = (   0.3042735   0.3869914   0.3181818  )
        11        C      tau(  11) = (   0.3900965   0.5634659   0.3181818  )
        12        H      tau(  12) = (   0.3042735   0.6130086   0.3181818  )

     number of k points=     1
                       cart. coord. in units 2pi/alat
        k(    1) = (   0.0000000   0.0000000   0.0000000), wk =   2.0000000

     Dense  grid:   136540 G-vectors     FFT dimensions: (  96,  96,  60)

     Smooth grid:    34513 G-vectors     FFT dimensions: (  60,  60,  40)

     Estimated max dynamical RAM per process >     205.87 MB

     Initial potential from superposition of free atoms

     starting charge      29.4225, renormalised to      30.0000

     negative rho (up, down):  1.168E-02 0.000E+00
     Starting wfcs are   30 randomized atomic wfcs

     total cpu time spent up to now is        0.6 secs

     Self-consistent Calculation

     iteration #  1     ecut=    20.00 Ry     beta= 0.70
     Davidson diagonalization with overlap
     ethr =  1.00E-02,  avg # of iterations =  3.0

     negative rho (up, down):  3.591E-03 0.000E+00

     total cpu time spent up to now is        1.0 secs

     total energy              =     -75.15477682 Ry
     estimated scf accuracy    <       1.80620535 Ry

     iteration #  2     ecut=    20.00 Ry     beta= 0.70
     Davidson diagonalization with overlap
     ethr =  6.02E-03,  avg # of iterations =  2.0

     negative rho (up, down):  8.406E-04 0.000E+00

     total cpu time spent up to now is        1.4 secs

     total energy              =     -75.23109721 Ry
     estimated scf accuracy    <       0.07894961 Ry

     iteration #  3     ecut=    20.00 Ry     beta= 0.70
     Davidson diagonalization with overlap
     ethr =  2.63E-04,  avg # of iterations =  6.0

     negative rho (up, down):  7.649E-04 0.000E+00

     total cpu time spent up to now is        1.8 secs

     total energy              =     -75.27640072 Ry
     estimated scf accuracy    <       0.02373818 Ry

     iteration #  4     ecut=    20.00 Ry     beta= 0.70
     Davidson diagonalization with overlap
     ethr =  7.91E-05,  avg # of iterations =  3.0

     negative rho (up, down):  1.348E-03 0.000E+00

     total cpu time spent up to now is        2.1 secs

     total energy              =     -75.28224020 Ry
     estimated scf accuracy    <       0.01038183 Ry

     iteration #  5     ecut=    20.00 Ry     beta= 0.70
     Davidson diagonalization with overlap
     ethr =  3.46E-05,  avg # of iterations =  2.0

     negative rho (up, down):  2.346E-03 0.000E+00

     total cpu time spent up to now is        2.5 secs

     total energy              =     -75.28167176 Ry
     estimated scf accuracy    <       0.00170516 Ry

     iteration #  6     ecut=    20.00 Ry     beta= 0.70
     Davidson diagonalization with overlap
     ethr =  5.68E-06,  avg # of iterations =  4.0

     negative rho (up, down):  2.511E-03 0.000E+00

     total cpu time spent up to now is        2.8 secs

     total energy              =     -75.28315639 Ry
     estimated scf accuracy    <       0.00121672 Ry

     iteration #  7     ecut=    20.00 Ry     beta= 0.70
     Davidson diagonalization with overlap
     ethr =  4.06E-06,  avg # of iterations =  1.0

     negative rho (up, down):  2.807E-03 0.000E+00

     total cpu time spent up to now is        3.2 secs

     total energy              =     -75.28265003 Ry
     estimated scf accuracy    <       0.00066414 Ry

     iteration #  8     ecut=    20.00 Ry     beta= 0.70
     Davidson diagonalization with overlap
     ethr =  2.21E-06,  avg # of iterations =  3.0

     negative rho (up, down):  2.828E-03 0.000E+00

     total cpu time spent up to now is        3.6 secs

     total energy              =     -75.28287068 Ry
     estimated scf accuracy    <       0.00056443 Ry

     iteration #  9     ecut=    20.00 Ry     beta= 0.70
     Davidson diagonalization with overlap
     ethr =  1.88E-06,  avg # of iterations =  2.0

     negative rho (up, down):  2.858E-03 0.000E+00

     total cpu time spent up to now is        3.9 secs

     total energy              =     -75.28295507 Ry
     estimated scf accuracy    <       0.00001286 Ry

     iteration # 10     ecut=    20.00 Ry     beta= 0.70
     Davidson diagonalization with overlap
     ethr =  4.29E-08,  avg # of iterations =  7.0

     negative rho (up, down):  2.857E-03 0.000E+00

     total cpu time spent up to now is        4.3 secs

     total energy              =     -75.28297945 Ry
     estimated scf accuracy    <       0.00001137 Ry

     iteration # 11     ecut=    20.00 Ry     beta= 0.70
     Davidson diagonalization with overlap
     ethr =  3.79E-08,  avg # of iterations =  1.0

     negative rho (up, down):  2.854E-03 0.000E+00

     total cpu time spent up to now is        4.6 secs

     total energy              =     -75.28297470 Ry
     estimated scf accuracy    <       0.00000964 Ry

     iteration # 12     ecut=    20.00 Ry     beta= 0.70
     Davidson diagonalization with overlap
     ethr =  3.21E-08,  avg # of iterations =  2.0

     negative rho (up, down):  2.853E-03 0.000E+00

     total cpu time spent up to now is        5.0 secs

     End of self-consistent calculation

          k = 0.0000 0.0000 0.0000 (  4318 PWs)   bands (ev):

   -21.1533 -18.3674 -18.3663 -14.7551 -14.7452 -12.8004 -11.0947 -10.8227
   -10.1297 -10.1222  -8.9970  -8.1353  -8.1204  -6.2693  -6.2692  -1.1449

     highest occupied, lowest unoccupied level (ev):    -6.2692   -1.1449

!    total energy              =     -75.28297565 Ry
     estimated scf accuracy    <       0.00000055 Ry

     The total energy is the sum of the following terms:
     one-electron contribution =    -518.40273693 Ry
     hartree contribution      =     262.26982469 Ry
     xc contribution           =     -25.13443267 Ry
     ewald contribution        =     205.98436926 Ry

     convergence has been achieved in  12 iterations

     Writing all to output data dir ./tmp_benz/benzene.save/ :
     XML data file, charge density, pseudopotentials, collected wavefunctions

     init_run     :      0.50s CPU      0.53s WALL (       1 calls)
     electrons    :      4.32s CPU      4.37s WALL (       1 calls)

     Called by init_run:
     wfcinit      :      0.05s CPU      0.05s WALL (       1 calls)
     potinit      :      0.19s CPU      0.20s WALL (       1 calls)
     hinit0       :      0.15s CPU      0.17s WALL (       1 calls)

     Called by electrons:
     c_bands      :      0.75s CPU      0.75s WALL (      12 calls)
     sum_band     :      0.89s CPU      0.91s WALL (      12 calls)
     v_of_rho     :      1.83s CPU      1.84s WALL (      13 calls)
     newd         :      0.81s CPU      0.84s WALL (      13 calls)
     mix_rho      :      0.13s CPU      0.13s WALL (      12 calls)

     Called by c_bands:
     init_us_2    :      0.02s CPU      0.02s WALL (      25 calls)
     regterg      :      0.72s CPU      0.72s WALL (      12 calls)

     Called by *egterg:
     rdiaghg      :      0.02s CPU      0.02s WALL (      48 calls)
     h_psi        :      0.62s CPU      0.62s WALL (      49 calls)
     s_psi        :      0.03s CPU      0.03s WALL (      49 calls)
     g_psi        :      0.00s CPU      0.00s WALL (      36 calls)

     Called by h_psi:
     h_psi:calbec :      0.04s CPU      0.04s WALL (      49 calls)
     vloc_psi     :      0.55s CPU      0.55s WALL (      49 calls)
     add_vuspsi   :      0.03s CPU      0.03s WALL (      49 calls)

     General routines
     calbec       :      0.05s CPU      0.05s WALL (      61 calls)
     fft          :      0.65s CPU      0.66s WALL (     141 calls)
     ffts         :      0.02s CPU      0.02s WALL (      25 calls)
     fftw         :      0.54s CPU      0.54s WALL (     726 calls)
     interpolate  :      0.07s CPU      0.07s WALL (      13 calls)

     Parallel routines

     PWSCF        :      4.92s CPU      5.02s WALL


   This run was terminated on:  15:22:16  10Jun2025            

=------------------------------------------------------------------------------=
   JOB DONE.
=------------------------------------------------------------------------------=
