nqpoint: 200    
npath: 4      
segment_nqpoint:
- 50
- 50
- 50
- 50
labels:
- [ 'G', 'X' ]
- [ 'X', 'U|K' ]
- [ 'U|K', 'G' ]
- [ 'G', 'L' ]
reciprocal_lattice:
- [  -0.18455273,   0.18455274,   0.18455274 ] # a*
- [   0.18455273,  -0.18455274,   0.18455274 ] # b*
- [   0.18455273,   0.18455274,  -0.18455274 ] # c*
natom: 2      
lattice:
- [    -0.000000000001000,     2.709252719577000,     2.709252719609999 ] # a
- [     2.709252757352000,    -0.000000000010000,     2.709252719619000 ] # b
- [     2.709252757329000,     2.709252719563000,     0.000000000013000 ] # c
points:
- symbol: Si # 1
  coordinates: [  0.999999999986000,  0.999999999993000,  0.000000000018000 ]
  mass: 28.085000
- symbol: Si # 2
  coordinates: [  0.250000000013998,  0.250000000007000,  0.249999999982001 ]
  mass: 28.085000

phonon:
- q-position: [    0.0000000,    0.0000000,    0.0000000 ]
  distance:    0.0000000
  band:
  - # 1
    frequency:    0.0000005777
  - # 2
    frequency:    0.0000005950
  - # 3
    frequency:    0.0000006982
  - # 4
    frequency:   15.4704720255
  - # 5
    frequency:   15.4704720255
  - # 6
    frequency:   15.4704720255

- q-position: [    0.0102041,    0.0000000,    0.0102041 ]
  distance:    0.0037664
  band:
  - # 1
    frequency:    0.2102104856
  - # 2
    frequency:    0.2102104856
  - # 3
    frequency:    0.3122588172
  - # 4
    frequency:   15.4663645443
  - # 5
    frequency:   15.4663645443
  - # 6
    frequency:   15.4694151629

- q-position: [    0.0204082,    0.0000000,    0.0204082 ]
  distance:    0.0075328
  band:
  - # 1
    frequency:    0.4196911025
  - # 2
    frequency:    0.4196911026
  - # 3
    frequency:    0.6242866816
  - # 4
    frequency:   15.4541077796
  - # 5
    frequency:   15.4541077796
  - # 6
    frequency:   15.4662423156

- q-position: [    0.0306122,    0.0000000,    0.0306122 ]
  distance:    0.0112991
  band:
  - # 1
    frequency:    0.6277144014
  - # 2
    frequency:    0.6277144015
  - # 3
    frequency:    0.9358545852
  - # 4
    frequency:   15.4338971753
  - # 5
    frequency:   15.4338971753
  - # 6
    frequency:   15.4609467374

- q-position: [    0.0408163,    0.0000000,    0.0408163 ]
  distance:    0.0150655
  band:
  - # 1
    frequency:    0.8335580479
  - # 2
    frequency:    0.8335580480
  - # 3
    frequency:    1.2467373405
  - # 4
    frequency:   15.4060531942
  - # 5
    frequency:   15.4060531942
  - # 6
    frequency:   15.4535172935

- q-position: [    0.0510204,    0.0000000,    0.0510204 ]
  distance:    0.0188319
  band:
  - # 1
    frequency:    1.0365080536
  - # 2
    frequency:    1.0365080537
  - # 3
    frequency:    1.5567153211
  - # 4
    frequency:   15.3710135133
  - # 5
    frequency:   15.3710135133
  - # 6
    frequency:   15.4439386147

- q-position: [    0.0612245,    0.0000000,    0.0612245 ]
  distance:    0.0225983
  band:
  - # 1
    frequency:    1.2358627644
  - # 2
    frequency:    1.2358627645
  - # 3
    frequency:    1.8655760066
  - # 4
    frequency:   15.3293223230
  - # 5
    frequency:   15.3293223230
  - # 6
    frequency:   15.4321913018

- q-position: [    0.0714286,    0.0000000,    0.0714286 ]
  distance:    0.0263647
  band:
  - # 1
    frequency:    1.4309377723
  - # 2
    frequency:    1.4309377724
  - # 3
    frequency:    2.1731152805
  - # 4
    frequency:   15.2816169617
  - # 5
    frequency:   15.2816169618
  - # 6
    frequency:   15.4182521642

- q-position: [    0.0816327,    0.0000000,    0.0816327 ]
  distance:    0.0301311
  band:
  - # 1
    frequency:    1.6210718463
  - # 2
    frequency:    1.6210718464
  - # 3
    frequency:    2.4791384408
  - # 4
    frequency:   15.2286121946
  - # 5
    frequency:   15.2286121946
  - # 6
    frequency:   15.4020944809

- q-position: [    0.0918367,    0.0000000,    0.0918367 ]
  distance:    0.0338974
  band:
  - # 1
    frequency:    1.8056338890
  - # 2
    frequency:    1.8056338891
  - # 3
    frequency:    2.7834608941
  - # 4
    frequency:   15.1710825213
  - # 5
    frequency:   15.1710825213
  - # 6
    frequency:   15.3836882676

- q-position: [    0.1020408,    0.0000000,    0.1020408 ]
  distance:    0.0376638
  band:
  - # 1
    frequency:    1.9840308226
  - # 2
    frequency:    1.9840308228
  - # 3
    frequency:    3.0859085206
  - # 4
    frequency:   15.1098429846
  - # 5
    frequency:   15.1098429846
  - # 6
    frequency:   15.3630005351

- q-position: [    0.1122449,    0.0000000,    0.1122449 ]
  distance:    0.0414302
  band:
  - # 1
    frequency:    2.1557162013
  - # 2
    frequency:    2.1557162014
  - # 3
    frequency:    3.3863177091
  - # 4
    frequency:   15.0457290314
  - # 5
    frequency:   15.0457290314
  - # 6
    frequency:   15.3399955267

- q-position: [    0.1224490,    0.0000000,    0.1224490 ]
  distance:    0.0451966
  band:
  - # 1
    frequency:    2.3201992274
  - # 2
    frequency:    2.3201992276
  - # 3
    frequency:    3.6845350782
  - # 4
    frequency:   14.9795760549
  - # 5
    frequency:   14.9795760550
  - # 6
    frequency:   15.3146349225

- q-position: [    0.1326531,    0.0000000,    0.1326531 ]
  distance:    0.0489630
  band:
  - # 1
    frequency:    2.4770537500
  - # 2
    frequency:    2.4770537502
  - # 3
    frequency:    3.9804169112
  - # 4
    frequency:   14.9121993144
  - # 5
    frequency:   14.9121993144
  - # 6
    frequency:   15.2868780051

- q-position: [    0.1428571,    0.0000000,    0.1428571 ]
  distance:    0.0527294
  band:
  - # 1
    frequency:    2.6259267279
  - # 2
    frequency:    2.6259267281
  - # 3
    frequency:    4.2738283471
  - # 4
    frequency:   14.8443749652
  - # 5
    frequency:   14.8443749652
  - # 6
    frequency:   15.2566817823

- q-position: [    0.1530612,    0.0000000,    0.1530612 ]
  distance:    0.0564957
  band:
  - # 1
    frequency:    2.7665455858
  - # 2
    frequency:    2.7665455860
  - # 3
    frequency:    4.5646423795
  - # 4
    frequency:   14.7768229473
  - # 5
    frequency:   14.7768229474
  - # 6
    frequency:   15.2240010683

- q-position: [    0.1632653,    0.0000000,    0.1632653 ]
  distance:    0.0602621
  band:
  - # 1
    frequency:    2.8987238733
  - # 2
    frequency:    2.8987238736
  - # 3
    frequency:    4.8527387213
  - # 4
    frequency:   14.7101924406
  - # 5
    frequency:   14.7101924407
  - # 6
    frequency:   15.1887885294

- q-position: [    0.1734694,    0.0000000,    0.1734694 ]
  distance:    0.0640285
  band:
  - # 1
    frequency:    3.0223646736
  - # 2
    frequency:    3.0223646739
  - # 3
    frequency:    5.1380026023
  - # 4
    frequency:   14.6450505132
  - # 5
    frequency:   14.6450505133
  - # 6
    frequency:   15.1509947027

- q-position: [    0.1836735,    0.0000000,    0.1836735 ]
  distance:    0.0677949
  band:
  - # 1
    frequency:    3.1374613049
  - # 2
    frequency:    3.1374613053
  - # 3
    frequency:    5.4203235642
  - # 4
    frequency:   14.5818744500
  - # 5
    frequency:   14.5818744501
  - # 6
    frequency:   15.1105680018

- q-position: [    0.1938776,    0.0000000,    0.1938776 ]
  distance:    0.0715613
  band:
  - # 1
    frequency:    3.2440950112
  - # 2
    frequency:    3.2440950115
  - # 3
    frequency:    5.6995943195
  - # 4
    frequency:   14.5210480554
  - # 5
    frequency:   14.5210480555
  - # 6
    frequency:   15.0674547229

- q-position: [    0.2040816,    0.0000000,    0.2040816 ]
  distance:    0.0753276
  band:
  - # 1
    frequency:    3.3424295408
  - # 2
    frequency:    3.3424295411
  - # 3
    frequency:    5.9757097336
  - # 4
    frequency:   14.4628619987
  - # 5
    frequency:   14.4628619988
  - # 6
    frequency:   15.0215990692

- q-position: [    0.2142857,    0.0000000,    0.2142857 ]
  distance:    0.0790940
  band:
  - # 1
    frequency:    3.4327027485
  - # 2
    frequency:    3.4327027489
  - # 3
    frequency:    6.2485659853
  - # 4
    frequency:   14.4075180148
  - # 5
    frequency:   14.4075180149
  - # 6
    frequency:   14.9729432083

- q-position: [    0.2244898,    0.0000000,    0.2244898 ]
  distance:    0.0828604
  band:
  - # 1
    frequency:    3.5152155994
  - # 2
    frequency:    3.5152155999
  - # 3
    frequency:    6.5180599453
  - # 4
    frequency:   14.3551365263
  - # 5
    frequency:   14.3551365264
  - # 6
    frequency:   14.9214273783

- q-position: [    0.2346939,    0.0000000,    0.2346939 ]
  distance:    0.0866268
  band:
  - # 1
    frequency:    3.5903191782
  - # 2
    frequency:    3.5903191786
  - # 3
    frequency:    6.7840888074
  - # 4
    frequency:   14.3057670313
  - # 5
    frequency:   14.3057670314
  - # 6
    frequency:   14.8669900543

- q-position: [    0.2448980,    0.0000000,    0.2448980 ]
  distance:    0.0903932
  band:
  - # 1
    frequency:    3.6584004909
  - # 2
    frequency:    3.6584004913
  - # 3
    frequency:    7.0465499867
  - # 4
    frequency:   14.2594004295
  - # 5
    frequency:   14.2594004296
  - # 6
    frequency:   14.8095681825

- q-position: [    0.2551020,    0.0000000,    0.2551020 ]
  distance:    0.0941596
  band:
  - # 1
    frequency:    3.7198679610
  - # 2
    frequency:    3.7198679615
  - # 3
    frequency:    7.3053412901
  - # 4
    frequency:   14.2159823634
  - # 5
    frequency:   14.2159823635
  - # 6
    frequency:   14.7490974878

- q-position: [    0.2653061,    0.0000000,    0.2653061 ]
  distance:    0.0979259
  band:
  - # 1
    frequency:    3.7751375549
  - # 2
    frequency:    3.7751375554
  - # 3
    frequency:    7.5603613478
  - # 4
    frequency:   14.1754266246
  - # 5
    frequency:   14.1754266247
  - # 6
    frequency:   14.6855128495

- q-position: [    0.2755102,    0.0000000,    0.2755102 ]
  distance:    0.1016923
  band:
  - # 1
    frequency:    3.8246204250
  - # 2
    frequency:    3.8246204255
  - # 3
    frequency:    7.8115102811
  - # 4
    frequency:   14.1376277401
  - # 5
    frequency:   14.1376277402
  - # 6
    frequency:   14.6187487405

- q-position: [    0.2857143,    0.0000000,    0.2857143 ]
  distance:    0.1054587
  band:
  - # 1
    frequency:    3.8687128273
  - # 2
    frequency:    3.8687128277
  - # 3
    frequency:    8.0586905714
  - # 4
    frequency:   14.1024719768
  - # 5
    frequency:   14.1024719770
  - # 6
    frequency:   14.5487397158

- q-position: [    0.2959184,    0.0000000,    0.2959184 ]
  distance:    0.1092251
  band:
  - # 1
    frequency:    3.9077888743
  - # 2
    frequency:    3.9077888748
  - # 3
    frequency:    8.3018080852
  - # 4
    frequency:   14.0698461901
  - # 5
    frequency:   14.0698461902
  - # 6
    frequency:   14.4754209323

- q-position: [    0.3061224,    0.0000000,    0.3061224 ]
  distance:    0.1129915
  band:
  - # 1
    frequency:    3.9421964402
  - # 2
    frequency:    3.9421964407
  - # 3
    frequency:    8.5407731995
  - # 4
    frequency:   14.0396441575
  - # 5
    frequency:   14.0396441577
  - # 6
    frequency:   14.3987286784

- q-position: [    0.3163265,    0.0000000,    0.3163265 ]
  distance:    0.1167579
  band:
  - # 1
    frequency:    3.9722562647
  - # 2
    frequency:    3.9722562652
  - # 3
    frequency:    8.7755019725
  - # 4
    frequency:   14.0117702764
  - # 5
    frequency:   14.0117702766
  - # 6
    frequency:   14.3186008889

- q-position: [    0.3265306,    0.0000000,    0.3265306 ]
  distance:    0.1205242
  band:
  - # 1
    frequency:    3.9982640340
  - # 2
    frequency:    3.9982640345
  - # 3
    frequency:    9.0059172984
  - # 4
    frequency:   13.9861407253
  - # 5
    frequency:   13.9861407254
  - # 6
    frequency:   14.2349776181

- q-position: [    0.3367347,    0.0000000,    0.3367347 ]
  distance:    0.1242906
  band:
  - # 1
    frequency:    4.0204949681
  - # 2
    frequency:    4.0204949685
  - # 3
    frequency:    9.2319499883
  - # 4
    frequency:   13.9626823979
  - # 5
    frequency:   13.9626823981
  - # 6
    frequency:   14.1478014465

- q-position: [    0.3469388,    0.0000000,    0.3469388 ]
  distance:    0.1280570
  band:
  - # 1
    frequency:    4.0392102378
  - # 2
    frequency:    4.0392102382
  - # 3
    frequency:    9.4535397229
  - # 4
    frequency:   13.9413300803
  - # 5
    frequency:   13.9413300804
  - # 6
    frequency:   14.0570177968

- q-position: [    0.3571429,    0.0000000,    0.3571429 ]
  distance:    0.1318234
  band:
  - # 1
    frequency:    4.0546643924
  - # 2
    frequency:    4.0546643928
  - # 3
    frequency:    9.6706358297
  - # 4
    frequency:   13.9220224558
  - # 5
    frequency:   13.9220224559
  - # 6
    frequency:   13.9625751386

- q-position: [    0.3673469,    0.0000000,    0.3673469 ]
  distance:    0.1355898
  band:
  - # 1
    frequency:    4.0671129016
  - # 2
    frequency:    4.0671129020
  - # 3
    frequency:    9.8831978455
  - # 4
    frequency:   13.8644250683
  - # 5
    frequency:   13.9046975842
  - # 6
    frequency:   13.9046975843

- q-position: [    0.3775510,    0.0000000,    0.3775510 ]
  distance:    0.1393561
  band:
  - # 1
    frequency:    4.0768189206
  - # 2
    frequency:    4.0768189210
  - # 3
    frequency:   10.0911958369
  - # 4
    frequency:   13.7625222535
  - # 5
    frequency:   13.8892884975
  - # 6
    frequency:   13.8892884976

- q-position: [    0.3877551,    0.0000000,    0.3877551 ]
  distance:    0.1431225
  band:
  - # 1
    frequency:    4.0840584681
  - # 2
    frequency:    4.0840584685
  - # 3
    frequency:   10.2946104622
  - # 4
    frequency:   13.6568242429
  - # 5
    frequency:   13.8757194992
  - # 6
    frequency:   13.8757194993

- q-position: [    0.3979592,    0.0000000,    0.3979592 ]
  distance:    0.1468889
  band:
  - # 1
    frequency:    4.0891233540
  - # 2
    frequency:    4.0891233543
  - # 3
    frequency:   10.4934327708
  - # 4
    frequency:   13.5472911475
  - # 5
    frequency:   13.8639036464
  - # 6
    frequency:   13.8639036465

- q-position: [    0.4081633,    0.0000000,    0.4081633 ]
  distance:    0.1506553
  band:
  - # 1
    frequency:    4.0923214037
  - # 2
    frequency:    4.0923214040
  - # 3
    frequency:   10.6876637493
  - # 4
    frequency:   13.4338852073
  - # 5
    frequency:   13.8537417466
  - # 6
    frequency:   13.8537417467

- q-position: [    0.4183673,    0.0000000,    0.4183673 ]
  distance:    0.1544217
  band:
  - # 1
    frequency:    4.0939737701
  - # 2
    frequency:    4.0939737704
  - # 3
    frequency:   10.8773136343
  - # 4
    frequency:   13.3165702679
  - # 5
    frequency:   13.8451230354
  - # 6
    frequency:   13.8451230355

- q-position: [    0.4285714,    0.0000000,    0.4285714 ]
  distance:    0.1581881
  band:
  - # 1
    frequency:    4.0944093874
  - # 2
    frequency:    4.0944093877
  - # 3
    frequency:   11.0624010238
  - # 4
    frequency:   13.1953111941
  - # 5
    frequency:   13.8379275218
  - # 6
    frequency:   13.8379275218

- q-position: [    0.4387755,    0.0000000,    0.4387755 ]
  distance:    0.1619544
  band:
  - # 1
    frequency:    4.0939568815
  - # 2
    frequency:    4.0939568817
  - # 3
    frequency:   11.2429518264
  - # 4
    frequency:   13.0700732564
  - # 5
    frequency:   13.8320298233
  - # 6
    frequency:   13.8320298234

- q-position: [    0.4489796,    0.0000000,    0.4489796 ]
  distance:    0.1657208
  band:
  - # 1
    frequency:    4.0929344847
  - # 2
    frequency:    4.0929344849
  - # 3
    frequency:   11.4189980947
  - # 4
    frequency:   12.9408215283
  - # 5
    frequency:   13.8273041741
  - # 6
    frequency:   13.8273041741

- q-position: [    0.4591837,    0.0000000,    0.4591837 ]
  distance:    0.1694872
  band:
  - # 1
    frequency:    4.0916386889
  - # 2
    frequency:    4.0916386890
  - # 3
    frequency:   11.5905767956
  - # 4
    frequency:   12.8075203349
  - # 5
    frequency:   13.8236301802
  - # 6
    frequency:   13.8236301802

- q-position: [    0.4693878,    0.0000000,    0.4693878 ]
  distance:    0.1732536
  band:
  - # 1
    frequency:    4.0903324952
  - # 2
    frequency:    4.0903324953
  - # 3
    frequency:   11.7577285685
  - # 4
    frequency:   12.6701327919
  - # 5
    frequency:   13.8208988381
  - # 6
    frequency:   13.8208988382

- q-position: [    0.4795918,    0.0000000,    0.4795918 ]
  distance:    0.1770200
  band:
  - # 1
    frequency:    4.0892341750
  - # 2
    frequency:    4.0892341751
  - # 3
    frequency:   11.9204965239
  - # 4
    frequency:   12.5286204727
  - # 5
    frequency:   13.8190183143
  - # 6
    frequency:   13.8190183143

- q-position: [    0.4897959,    0.0000000,    0.4897959 ]
  distance:    0.1807864
  band:
  - # 1
    frequency:    4.0885074271
  - # 2
    frequency:    4.0885074271
  - # 3
    frequency:   12.0789251304
  - # 4
    frequency:   12.3829432350
  - # 5
    frequency:   13.8179190090
  - # 6
    frequency:   13.8179190090

- q-position: [    0.5000000,    0.0000000,    0.5000000 ]
  distance:    0.1845527
  band:
  - # 1
    frequency:    4.0882537187
  - # 2
    frequency:    4.0882537187
  - # 3
    frequency:   12.2330592329
  - # 4
    frequency:   12.2330592329
  - # 5
    frequency:   13.8175574941
  - # 6
    frequency:   13.8175574941

- q-position: [    0.5000000,    0.0000000,    0.5000000 ]
  distance:    0.1845527
  band:
  - # 1
    frequency:    4.0882537187
  - # 2
    frequency:    4.0882537187
  - # 3
    frequency:   12.2330592329
  - # 4
    frequency:   12.2330592329
  - # 5
    frequency:   13.8175574941
  - # 6
    frequency:   13.8175574941

- q-position: [    0.5025510,    0.0051020,    0.5025510 ]
  distance:    0.1858844
  band:
  - # 1
    frequency:    4.0883817494
  - # 2
    frequency:    4.0901460092
  - # 3
    frequency:   12.2318626345
  - # 4
    frequency:   12.2322270211
  - # 5
    frequency:   13.8175542541
  - # 6
    frequency:   13.8179768547

- q-position: [    0.5051020,    0.0102041,    0.5051020 ]
  distance:    0.1872160
  band:
  - # 1
    frequency:    4.0887651239
  - # 2
    frequency:    4.0958122574
  - # 3
    frequency:   12.2282785773
  - # 4
    frequency:   12.2297335873
  - # 5
    frequency:   13.8175446975
  - # 6
    frequency:   13.8192322568

- q-position: [    0.5076531,    0.0153061,    0.5076531 ]
  distance:    0.1885476
  band:
  - # 1
    frequency:    4.0894016977
  - # 2
    frequency:    4.1052207499
  - # 3
    frequency:   12.2223242444
  - # 4
    frequency:   12.2255884621
  - # 5
    frequency:   13.8175293143
  - # 6
    frequency:   13.8213157271

- q-position: [    0.5102041,    0.0204082,    0.5102041 ]
  distance:    0.1898792
  band:
  - # 1
    frequency:    4.0902879222
  - # 2
    frequency:    4.1183191496
  - # 3
    frequency:   12.2140281709
  - # 4
    frequency:   12.2198072910
  - # 5
    frequency:   13.8175089189
  - # 6
    frequency:   13.8242141959

- q-position: [    0.5127551,    0.0255102,    0.5127551 ]
  distance:    0.1912108
  band:
  - # 1
    frequency:    4.0914188840
  - # 2
    frequency:    4.1350352530
  - # 3
    frequency:   12.2034300897
  - # 4
    frequency:   12.2124114878
  - # 5
    frequency:   13.8174846472
  - # 6
    frequency:   13.8279098111

- q-position: [    0.5153061,    0.0306122,    0.5153061 ]
  distance:    0.1925424
  band:
  - # 1
    frequency:    4.0927883578
  - # 2
    frequency:    4.1552780124
  - # 3
    frequency:   12.1905807159
  - # 4
    frequency:   12.2034277759
  - # 5
    frequency:   13.8174579526
  - # 6
    frequency:   13.8323803550

- q-position: [    0.5178571,    0.0357143,    0.5178571 ]
  distance:    0.1938741
  band:
  - # 1
    frequency:    4.0943888739
  - # 2
    frequency:    4.1789387875
  - # 3
    frequency:   12.1755414715
  - # 4
    frequency:   12.1928876380
  - # 5
    frequency:   13.8174306004
  - # 6
    frequency:   13.8375997406

- q-position: [    0.5204082,    0.0408163,    0.5204082 ]
  distance:    0.1952057
  band:
  - # 1
    frequency:    4.0962117980
  - # 2
    frequency:    4.2058927848
  - # 3
    frequency:   12.1583841512
  - # 4
    frequency:   12.1808267008
  - # 5
    frequency:   13.8174046612
  - # 6
    frequency:   13.8435385634

- q-position: [    0.5229592,    0.0459184,    0.5229592 ]
  distance:    0.1965373
  band:
  - # 1
    frequency:    4.0982474232
  - # 2
    frequency:    4.2360006414
  - # 3
    frequency:   12.1391905297
  - # 4
    frequency:   12.1672840796
  - # 5
    frequency:   13.8173825028
  - # 6
    frequency:   13.8501646842

- q-position: [    0.5255102,    0.0510204,    0.5255102 ]
  distance:    0.1978689
  band:
  - # 1
    frequency:    4.1004850721
  - # 2
    frequency:    4.2691101056
  - # 3
    frequency:   12.1180519145
  - # 4
    frequency:   12.1523017095
  - # 5
    frequency:   13.8173667817
  - # 6
    frequency:   13.8574438177

- q-position: [    0.5280612,    0.0561224,    0.5280612 ]
  distance:    0.1992005
  band:
  - # 1
    frequency:    4.1029132081
  - # 2
    frequency:    4.3050577716
  - # 3
    frequency:   12.0950686431
  - # 4
    frequency:   12.1359236840
  - # 5
    frequency:   13.8173604323
  - # 6
    frequency:   13.8653401080

- q-position: [    0.5306122,    0.0612245,    0.5306122 ]
  distance:    0.2005321
  band:
  - # 1
    frequency:    4.1055195536
  - # 2
    frequency:    4.3436708261
  - # 3
    frequency:   12.0703495293
  - # 4
    frequency:   12.1181956223
  - # 5
    frequency:   13.8173666559
  - # 6
    frequency:   13.8738166697

- q-position: [    0.5331633,    0.0663265,    0.5331633 ]
  distance:    0.2018638
  band:
  - # 1
    frequency:    4.1082912144
  - # 2
    frequency:    4.3847687712
  - # 3
    frequency:   12.0440112588
  - # 4
    frequency:   12.0991640794
  - # 5
    frequency:   13.8173889075
  - # 6
    frequency:   13.8828360837

- q-position: [    0.5357143,    0.0714286,    0.5357143 ]
  distance:    0.2031954
  band:
  - # 1
    frequency:    4.1112148075
  - # 2
    frequency:    4.4281650924
  - # 3
    frequency:   12.0161777390
  - # 4
    frequency:   12.0788760108
  - # 5
    frequency:   13.8174308827
  - # 6
    frequency:   13.8923608375

- q-position: [    0.5382653,    0.0765306,    0.5382653 ]
  distance:    0.2045270
  band:
  - # 1
    frequency:    4.1142765919
  - # 2
    frequency:    4.4736688479
  - # 3
    frequency:   11.9869794046
  - # 4
    frequency:   12.0573782979
  - # 5
    frequency:   13.8174965021
  - # 6
    frequency:   13.9023537030

- q-position: [    0.5408163,    0.0816327,    0.5408163 ]
  distance:    0.2058586
  band:
  - # 1
    frequency:    4.1174625987
  - # 2
    frequency:    4.5210861607
  - # 3
    frequency:   11.9565524817
  - # 4
    frequency:   12.0347173393
  - # 5
    frequency:   13.8175898957
  - # 6
    frequency:   13.9127780527

- q-position: [    0.5433673,    0.0867347,    0.5433673 ]
  distance:    0.2071902
  band:
  - # 1
    frequency:    4.1207587611
  - # 2
    frequency:    4.5702216018
  - # 3
    frequency:   11.9250382167
  - # 4
    frequency:   12.0109387062
  - # 5
    frequency:   13.8177153857
  - # 6
    frequency:   13.9235981127

- q-position: [    0.5459184,    0.0918367,    0.5459184 ]
  distance:    0.2085218
  band:
  - # 1
    frequency:    4.1241510407
  - # 2
    frequency:    4.6208794579
  - # 3
    frequency:   11.8925820708
  - # 4
    frequency:   11.9860868620
  - # 5
    frequency:   13.8178774680
  - # 6
    frequency:   13.9347791579

- q-position: [    0.5484694,    0.0969388,    0.5484694 ]
  distance:    0.2098535
  band:
  - # 1
    frequency:    4.1276255491
  - # 2
    frequency:    4.6728648816
  - # 3
    frequency:   11.8593328867
  - # 4
    frequency:   11.9602049413
  - # 5
    frequency:   13.8180807938
  - # 6
    frequency:   13.9462876538

- q-position: [    0.5510204,    0.1020408,    0.5510204 ]
  distance:    0.2111851
  band:
  - # 1
    frequency:    4.1311686640
  - # 2
    frequency:    4.7259849258
  - # 3
    frequency:   11.8254420321
  - # 4
    frequency:   11.9333345828
  - # 5
    frequency:   13.8183301490
  - # 6
    frequency:   13.9580913508

- q-position: [    0.5535714,    0.1071429,    0.5535714 ]
  distance:    0.2125167
  band:
  - # 1
    frequency:    4.1347671372
  - # 2
    frequency:    4.7800494670
  - # 3
    frequency:   11.7910625237
  - # 4
    frequency:   11.9055158129
  - # 5
    frequency:   13.8186304338
  - # 6
    frequency:   13.9701593383

- q-position: [    0.5561224,    0.1122449,    0.5561224 ]
  distance:    0.2138483
  band:
  - # 1
    frequency:    4.1384081939
  - # 2
    frequency:    4.8348720252
  - # 3
    frequency:   11.7563481400
  - # 4
    frequency:   11.8767869709
  - # 5
    frequency:   13.8189866408
  - # 6
    frequency:   13.9824620649

- q-position: [    0.5586735,    0.1173469,    0.5586735 ]
  distance:    0.2151799
  band:
  - # 1
    frequency:    4.1420796222
  - # 2
    frequency:    4.8902704860
  - # 3
    frequency:   11.7214525258
  - # 4
    frequency:   11.8471846726
  - # 5
    frequency:   13.8194038337
  - # 6
    frequency:   13.9949713320

- q-position: [    0.5612245,    0.1224490,    0.5612245 ]
  distance:    0.2165115
  band:
  - # 1
    frequency:    4.1457698510
  - # 2
    frequency:    4.9460677362
  - # 3
    frequency:   11.6865282992
  - # 4
    frequency:   11.8167438045
  - # 5
    frequency:   13.8198871238
  - # 6
    frequency:   14.0076602663

- q-position: [    0.5637755,    0.1275510,    0.5637755 ]
  distance:    0.2178432
  band:
  - # 1
    frequency:    4.1494680167
  - # 2
    frequency:    5.0020922188
  - # 3
    frequency:   11.6517261637
  - # 4
    frequency:   11.7854975456
  - # 5
    frequency:   13.8204416479
  - # 6
    frequency:   14.0205032776

- q-position: [    0.5663265,    0.1326531,    0.5663265 ]
  distance:    0.2191748
  band:
  - # 1
    frequency:    4.1531640173
  - # 2
    frequency:    5.0581784168
  - # 3
    frequency:   11.6171940371
  - # 4
    frequency:   11.7534774090
  - # 5
    frequency:   13.8210725444
  - # 6
    frequency:   14.0334760064

- q-position: [    0.5688776,    0.1377551,    0.5688776 ]
  distance:    0.2205064
  band:
  - # 1
    frequency:    4.1568485531
  - # 2
    frequency:    5.1141672721
  - # 3
    frequency:   11.5830762027
  - # 4
    frequency:   11.7207133012
  - # 5
    frequency:   13.8217849309
  - # 6
    frequency:   14.0465552658

- q-position: [    0.5714286,    0.1428571,    0.5714286 ]
  distance:    0.2218380
  band:
  - # 1
    frequency:    4.1605131543
  - # 2
    frequency:    5.1699065443
  - # 3
    frequency:   11.5495124924
  - # 4
    frequency:   11.6872335947
  - # 5
    frequency:   13.8225838803
  - # 6
    frequency:   14.0597189815

- q-position: [    0.5739796,    0.1479592,    0.5739796 ]
  distance:    0.2231696
  band:
  - # 1
    frequency:    4.1641501952
  - # 2
    frequency:    5.2252511161
  - # 3
    frequency:   11.5166375103
  - # 4
    frequency:   11.6530652089
  - # 5
    frequency:   13.8234743985
  - # 6
    frequency:   14.0729461322

- q-position: [    0.5765306,    0.1530612,    0.5765306 ]
  distance:    0.2245013
  band:
  - # 1
    frequency:    4.1677528950
  - # 2
    frequency:    5.2800632461
  - # 3
    frequency:   11.4845799055
  - # 4
    frequency:   11.6182336984
  - # 5
    frequency:   13.8244614019
  - # 6
    frequency:   14.0862166941

- q-position: [    0.5790816,    0.1581633,    0.5790816 ]
  distance:    0.2258329
  band:
  - # 1
    frequency:    4.1713153049
  - # 2
    frequency:    5.3342127722
  - # 3
    frequency:   11.4534617040
  - # 4
    frequency:   11.5827633444
  - # 5
    frequency:   13.8255496950
  - # 6
    frequency:   14.0995115890

- q-position: [    0.5816327,    0.1632653,    0.5816327 ]
  distance:    0.2271645
  band:
  - # 1
    frequency:    4.1748322832
  - # 2
    frequency:    5.3875772663
  - # 3
    frequency:   11.4233977074
  - # 4
    frequency:   11.5466772472
  - # 5
    frequency:   13.8267439502
  - # 6
    frequency:   14.1128126401

- q-position: [    0.5841837,    0.1683673,    0.5841837 ]
  distance:    0.2284961
  band:
  - # 1
    frequency:    4.1782994572
  - # 2
    frequency:    5.4400421393
  - # 3
    frequency:   11.3944949677
  - # 4
    frequency:   11.5099974192
  - # 5
    frequency:   13.8280486871
  - # 6
    frequency:   14.1261025331

- q-position: [    0.5867347,    0.1734694,    0.5867347 ]
  distance:    0.2298277
  band:
  - # 1
    frequency:    4.1817131740
  - # 2
    frequency:    5.4915006973
  - # 3
    frequency:   11.3668523463
  - # 4
    frequency:   11.4727448740
  - # 5
    frequency:   13.8294682538
  - # 6
    frequency:   14.1393647853

- q-position: [    0.5892857,    0.1785714,    0.5892857 ]
  distance:    0.2311593
  band:
  - # 1
    frequency:    4.1850704407
  - # 2
    frequency:    5.5418541452
  - # 3
    frequency:   11.3405601635
  - # 4
    frequency:   11.4349397133
  - # 5
    frequency:   13.8310068090
  - # 6
    frequency:   14.1525837215

- q-position: [    0.5918367,    0.1836735,    0.5918367 ]
  distance:    0.2324910
  band:
  - # 1
    frequency:    4.1883688536
  - # 2
    frequency:    5.5910115397
  - # 3
    frequency:   11.3156999447
  - # 4
    frequency:   11.3966012073
  - # 5
    frequency:   13.8326683063
  - # 6
    frequency:   14.1657444568

- q-position: [    0.5943878,    0.1887755,    0.5943878 ]
  distance:    0.2338226
  band:
  - # 1
    frequency:    4.1916065205
  - # 2
    frequency:    5.6388896879
  - # 3
    frequency:   11.2923442678
  - # 4
    frequency:   11.3577478705
  - # 5
    frequency:   13.8344564790
  - # 6
    frequency:   14.1788328853

- q-position: [    0.5969388,    0.1938776,    0.5969388 ]
  distance:    0.2351542
  band:
  - # 1
    frequency:    4.1947819736
  - # 2
    frequency:    5.6854129932
  - # 3
    frequency:   11.2705567143
  - # 4
    frequency:   11.3183975298
  - # 5
    frequency:   13.8363748281
  - # 6
    frequency:   14.1918356741

- q-position: [    0.5994898,    0.1989796,    0.5994898 ]