   2  512
1 1
    13.386290841597198     0.000000000000000    -0.000000000000000
    -0.000000000000000    13.386290841597189    -0.000000000000001
    -0.000000000000000    -0.000000000000051    13.386290841597198
1 2
     0.421160868314333     0.100660322866589     0.100660322871480
    -0.106164787893846    -0.168691253231944    -0.158181657723813
    -0.106164787896217    -0.158181657719913    -0.168691253233700
1 3
     0.102964958434799     0.023400429081340     0.023400429082401
    -0.022811780302812     0.000372022304395    -0.011122872324462
    -0.022811780303311    -0.011122872324196     0.000372022304003
1 4
     0.032903533245021     0.005299059922340     0.005299059922653
    -0.005042856414311    -0.000078822167359    -0.003782372322698
    -0.005042856414497    -0.003782372322608    -0.000078822167447
1 5
     0.037060419234113    -0.000000000000164     0.000000000000150
     0.000000000000164     0.000011837901633     0.000000000000000
    -0.000000000000150    -0.000000000000000     0.000011837901633
1 6
     0.032903533245029    -0.005299059922602    -0.005299059922418
     0.005042856414572    -0.000078822167451    -0.003782372322704
     0.005042856414263    -0.003782372322610    -0.000078822167363
1 7
     0.102964958434833    -0.023400429082158    -0.023400429081667
     0.022811780303631     0.000372022303986    -0.011122872324484
     0.022811780302576    -0.011122872324208     0.000372022304378
1 8
     0.421160868314486    -0.100660322870530    -0.100660322868092
     0.106164787897786    -0.168691253233777    -0.158181657723843
     0.106164787892828    -0.158181657720036    -0.168691253232020
1 9
    -0.168691253231944    -0.106164784933170    -0.158181655518466
     0.100660325672735     0.421160868313646     0.100660324273023
    -0.158181659924574    -0.106164786414008    -0.168691253233014
1 10
    -0.015240557232397     0.025934731008918    -0.011642262871417
     0.025934731731908    -0.015240557232371    -0.011642263033564
    -0.003914456214972    -0.003914456160547     0.001495003325263
1 11
    -0.002729047544715     0.006688372927476    -0.004740866900233
     0.008854928523185    -0.000459697747193    -0.000081020769747
    -0.000724345945115    -0.002359407014186     0.000534675319313
1 12
     0.000116327636777     0.005031192604465    -0.000976103477829
     0.005041286111500     0.000750649691787     0.000623084522004
     0.001058333343869    -0.000680798373449     0.000818368041416
1 13
     0.000116327636777     0.000976103477817    -0.005031192604527
    -0.001058333343882     0.000818368041417    -0.000680798373467
    -0.005041286111439     0.000623084521991     0.000750649691787
1 14
    -0.002729047544718     0.004740866900177    -0.006688372927558
     0.000724345945124     0.000534675319314    -0.002359407014247
    -0.008854928523078    -0.000081020769740    -0.000459697747192
1 15
    -0.015240557232400     0.011642262871277    -0.025934731009236
     0.003914456215015     0.001495003325266    -0.003914456160654
    -0.025934731731588    -0.011642263033267    -0.015240557232371
1 16
    -0.168691253232021     0.158181655516576     0.106164784934642
     0.158181659926540    -0.168691253233013    -0.106164786416612
    -0.100660325671764     0.100660324270667     0.421160868313723
1 17
     0.000372022304395    -0.022811779666723    -0.011122872169337
     0.023400429733768     0.102964958434645     0.023400429408332
    -0.011122872479167    -0.022811779984907     0.000372022304156
1 18
    -0.000459697747186     0.008854928276319    -0.000081020768650
     0.006688373113920    -0.002729047544702    -0.004740866966286
    -0.002359407047050    -0.000724345935058     0.000534675319292
1 19
     0.000881401444040     0.004903903461476     0.000421241873163
     0.004903903598193     0.000881401444037     0.000421241879048
    -0.000395781033962    -0.000395781028459    -0.000004210869675
1 20
     0.000292546655298     0.001385804096058    -0.001385804096075
     0.001350278240229    -0.000294664621166    -0.000792374073486
    -0.001350278240212    -0.000792374073465    -0.000294664621166
1 21
     0.000881401444040    -0.000421241873158    -0.004903903461536
     0.000395781033968    -0.000004210869675    -0.000395781028470
    -0.004903903598134     0.000421241879040     0.000881401444037
1 22
    -0.000459697747184     0.000081020768648    -0.008854928276428
     0.002359407047079     0.000534675319291    -0.000724345935080
    -0.006688373113836    -0.004740866966168    -0.002729047544703
1 23
     0.000372022304378     0.011122872169211     0.022811779667031
     0.011122872479311     0.000372022304156    -0.022811779985458
    -0.023400429733529     0.023400429407774     0.102964958434663
1 24
     0.001871558064566     0.011513124295395    -0.011513124295551
     0.003863277306073    -0.015531854233544    -0.026439372849797
    -0.003863277306010    -0.026439372849147    -0.015531854233547
1 25
    -0.000078822167359    -0.005042856273690    -0.003782372269957
     0.005299060070079     0.032903533244987     0.005299059996428
    -0.003782372375316    -0.005042856344075    -0.000078822167412
1 26
     0.000750649691792     0.005041285970947     0.000623084513302
     0.005031192744726     0.000116327636784    -0.000976103491416
    -0.000680798382922     0.001058333329097     0.000818368041405
1 27
    -0.000294664621166     0.001350278202591    -0.000792374062445
     0.001385804134686     0.000292546655298    -0.001385804115390
    -0.000792374084506    -0.001350278221392    -0.000294664621166
1 28
    -0.000294664621166     0.000792374062435    -0.001350278202608
     0.000792374084516    -0.000294664621166    -0.001350278221426
    -0.001385804134668    -0.001385804115355     0.000292546655298
1 29
     0.000750649691792    -0.000623084513294    -0.005041285971008
     0.000680798382930     0.000818368041405     0.001058333329121
    -0.005031192744664    -0.000976103491391     0.000116327636784
1 30
    -0.000078822167363     0.003782372269912     0.005042856273762
     0.003782372375363    -0.000078822167412    -0.005042856344198
    -0.005299060070029     0.005299059996302     0.032903533244990
1 31
     0.000547510129075     0.000003885660718    -0.004635748531786
     0.002385616687773    -0.000604717278813    -0.006837973514388
    -0.000747597331110    -0.008794019176555    -0.002838670220498
1 32
     0.000547510129073     0.004635748531726    -0.000003885660721
     0.000747597331123    -0.002838670220496    -0.008794019176770
    -0.002385616687741    -0.006837973514219    -0.000604717278812
1 33
     0.000011837901633     0.000000000000164    -0.000000000000000
    -0.000000000000164     0.037060419234113     0.000000000000027
    -0.000000000000000    -0.000000000000027     0.000011837901633
1 34
     0.000818368041413    -0.001058333314357    -0.000680798363973
     0.000976103505016     0.000116327636777    -0.005031192674654
     0.000623084530680    -0.005041286041164     0.000750649691792
1 35
    -0.000004210869678     0.000395781022951    -0.000395781022958
    -0.000421241884917     0.000881401444040    -0.004903903529896
     0.000421241884913    -0.004903903529776     0.000881401444040
1 36
     0.000818368041411     0.000680798363963     0.001058333314368
    -0.000623084530686     0.000750649691792    -0.005041286041286
    -0.000976103505002    -0.005031192674531     0.000116327636777
1 37
     0.000011837901633     0.000000000000000    -0.000000000000150
    -0.000000000000000     0.000011837901633    -0.000000000000027
     0.000000000000150     0.000000000000027     0.037060419234113
1 38
     0.000818368041406    -0.000680798363923    -0.001058333314407
     0.000623084530645     0.000750649691781    -0.005041286041290
     0.000976103505041    -0.005031192674534     0.000116327636794
1 39
    -0.000004210869664    -0.000395781022904     0.000395781022907
     0.000421241884869     0.000881401444033    -0.004903903529889
    -0.000421241884863    -0.004903903529769     0.000881401444033
1 40
     0.000818368041405     0.001058333314392     0.000680798363929
    -0.000976103505050     0.000116327636795    -0.005031192674656
    -0.000623084530636    -0.005041286041167     0.000750649691781
1 41
    -0.000078822167451     0.005042856273977    -0.003782372269996
    -0.005299060070366     0.032903533245063    -0.005299059996413
    -0.003782372375352     0.005042856344060    -0.000078822167397
1 42
     0.000534675319307     0.000724345924967    -0.002359406981356
     0.004740867032326    -0.002729047544725    -0.006688373020768
    -0.000081020770857    -0.008854928399654    -0.000459697747178
1 43
     0.000534675319304     0.002359406981325    -0.000724345924980
     0.000081020770862    -0.000459697747177    -0.008854928399870
    -0.004740867032265    -0.006688373020602    -0.002729047544723
1 44
    -0.000078822167447     0.003782372269948    -0.005042856274024
     0.003782372375397    -0.000078822167397     0.005042856344180
     0.005299060070291    -0.005299059996284     0.032903533245059
1 45
     0.000750649691781     0.000623084513288    -0.005041285971017
    -0.000680798382923     0.000818368041413    -0.001058333329164
    -0.005031192744672     0.000976103491434     0.000116327636787
1 46
    -0.000171393767763     0.000742642705038    -0.001351736180557
     0.000742642725733    -0.000171393767763    -0.001351736199396
    -0.001360673387739    -0.001360673368776     0.000321669300995
1 47
    -0.000171393767763     0.001351736180540    -0.000742642705047
     0.001360673387756     0.000321669300995    -0.001360673368810
    -0.000742642725724    -0.001351736199362    -0.000171393767763
1 48
     0.000750649691781     0.005041285970955    -0.000623084513295
     0.005031192744733     0.000116327636787     0.000976103491456
     0.000680798382915    -0.001058333329137     0.000818368041413
1 49
     0.000372022303986     0.022811779667616    -0.011122872169511
    -0.023400429734660     0.102964958434987    -0.023400429408279
    -0.011122872479335     0.022811779984853     0.000372022304225
1 50
     0.001495003325292     0.003914456105982    -0.003914456106045
     0.011642263195730    -0.015240557232400    -0.025934731370718
    -0.011642263195573    -0.025934731370080    -0.015240557232397
1 51
     0.000372022304003     0.011122872169367    -0.022811779667847
     0.011122872479462     0.000372022304225     0.022811779985396
     0.023400429734346    -0.023400429407713     0.102964958434970
1 52
    -0.000604717278806     0.002385616621289    -0.006837973419070
     0.000003885660781     0.000547510129088    -0.004635748596418
    -0.008794019299148    -0.000747597320685    -0.002838670220517
1 53
     0.000881401444033     0.000421241873143    -0.004903903461532
    -0.000395781033953    -0.000004210869667     0.000395781028426
    -0.004903903598129    -0.000421241878995     0.000881401444036
1 54
     0.000321669300995     0.001360673349828    -0.001360673349845
     0.001351736218219    -0.000171393767763    -0.000742642715395
    -0.001351736218202    -0.000742642715376    -0.000171393767763
1 55
     0.000881401444033     0.004903903461472    -0.000421241873149
     0.004903903598189     0.000881401444036    -0.000421241879007
     0.000395781033948     0.000395781028418    -0.000004210869667
1 56
    -0.000604717278805     0.006837973418984    -0.002385616621318
     0.008794019299257    -0.002838670220518    -0.000747597320708
    -0.000003885660780    -0.004635748596303     0.000547510129087
1 57
    -0.168691253233777     0.106164784938162    -0.158181655519201
    -0.100660325677727     0.421160868315173    -0.100660324273554
    -0.158181659925365     0.106164786414535    -0.168691253232708
1 58
    -0.168691253233700     0.158181655517237    -0.106164784939198
     0.158181659927253    -0.168691253232708     0.106164786417026
     0.100660325676319    -0.100660324271080     0.421160868315097
1 59
    -0.015531854233544     0.003863277198468    -0.026439372481255
     0.011513124616246     0.001871558064591    -0.011513124456059
    -0.026439373217664    -0.003863277252112    -0.015531854233572
1 60
    -0.002838670220503     0.000747597310318    -0.008794019054194
     0.004635748660945     0.000547510129065    -0.000003885660764
    -0.006837973609515    -0.002385616654485    -0.000604717278798
1 61
     0.000116327636795    -0.000976103477819    -0.005031192604522
     0.001058333343883     0.000818368041401     0.000680798373422
    -0.005041286111435    -0.000623084521947     0.000750649691785
1 62
     0.000116327636794     0.005031192604461     0.000976103477831
     0.005041286111496     0.000750649691785    -0.000623084521963
    -0.001058333343871     0.000680798373408     0.000818368041402
1 63
    -0.002838670220505     0.008794019054088    -0.000747597310327
     0.006837973609598    -0.000604717278797    -0.002385616654546
    -0.004635748660889    -0.000003885660759     0.000547510129066
1 64
    -0.015531854233547     0.026439372480928    -0.003863277198510
     0.026439373217988    -0.015531854233572    -0.003863277252217
    -0.011513124616108    -0.011513124455765     0.001871558064594
1 65
    -0.168691253233700    -0.158181655517394    -0.106164784940372
    -0.158181659927402    -0.168691253233013    -0.106164786418837
     0.100660325675662     0.100660324271060     0.421160868315403
1 66
    -0.015240557232331    -0.011642262871034     0.025934731009201
    -0.003914456215195     0.001495003325198    -0.003914456160456
     0.025934731731691    -0.011642263033402    -0.015240557232371
1 67
    -0.002729047544700    -0.004740866900147     0.006688372927518
    -0.000724345945172     0.000534675319279    -0.002359407014193
     0.008854928523097    -0.000081020769780    -0.000459697747175
1 68
     0.000116327636795    -0.000976103477816     0.005031192604515
     0.001058333343870     0.000818368041399    -0.000680798373414
     0.005041286111439     0.000623084521955     0.000750649691787
1 69
     0.000116327636794    -0.005031192604454     0.000976103477829
    -0.005041286111500     0.000750649691787     0.000623084521972
    -0.001058333343857    -0.000680798373399     0.000818368041400
1 70
    -0.002729047544702    -0.006688372927437     0.004740866900206
    -0.008854928523206    -0.000459697747174    -0.000081020769777
     0.000724345945163    -0.002359407014138     0.000534675319280
1 71
    -0.015240557232334    -0.025934731008887     0.011642262871178
    -0.025934731732003    -0.015240557232371    -0.011642263033672
     0.003914456215142    -0.003914456160371     0.001495003325200
1 72
    -0.168691253233777     0.106164784939258     0.158181655519357
    -0.100660325677143     0.421160868315478     0.100660324273607
     0.158181659925515    -0.106164786416272    -0.168691253233014
1 73
     0.001495003325223    -0.003914456106136    -0.003914456105821
    -0.011642263195565    -0.015240557232331     0.025934731370683
    -0.011642263195785     0.025934731370183    -0.015240557232397
1 74
    -0.002593427238348     0.000281294733314     0.000281294733320
     0.000281294741159    -0.002593427238348     0.000281294737242
     0.000281294741153     0.000281294737231    -0.002593427238348
1 75
     0.000321669300995     0.001360673349824     0.001360673349851
     0.001351736218223    -0.000171393767763     0.000742642715406
     0.001351736218196     0.000742642715365    -0.000171393767763
1 76
     0.000289003659232    -0.000000000000004     0.000000000000003
     0.000000000000004    -0.000670019085372    -0.000092981997403
    -0.000000000000003    -0.000092981997400    -0.000670019085372
1 77
     0.000321669300995    -0.001360673349834    -0.001360673349841
    -0.001351736218212    -0.000171393767763     0.000742642715383
    -0.001351736218206     0.000742642715388    -0.000171393767763
1 78
    -0.002593427238348    -0.000281294733317    -0.000281294733318
    -0.000281294741156    -0.002593427238348     0.000281294737237
    -0.000281294741155     0.000281294737235    -0.002593427238348
1 79
     0.001495003325229     0.003914456105777     0.003914456106187
     0.011642263195923    -0.015240557232400     0.025934731370812
     0.011642263195419     0.025934731370048    -0.015240557232334
1 80
    -0.002541939141652    -0.000000000000079     0.000000000000073
     0.000000000000079    -0.020284196646170     0.000184921943367
    -0.000000000000073     0.000184921943363    -0.020284196646170
1 81
     0.000534675319271    -0.000724345924999    -0.002359406981298
    -0.004740867032297    -0.002729047544693     0.006688373020744
    -0.000081020770929     0.008854928399658    -0.000459697747175
1 82
    -0.000171393767763     0.001351736180530     0.000742642705049
     0.001360673387766     0.000321669300995     0.001360673368821
     0.000742642725721     0.001351736199350    -0.000171393767763
1 83
    -0.000281930777442     0.000362926222375    -0.000088406406568
     0.000362926232493    -0.000281930777442    -0.000088406407800
    -0.000009504612487    -0.000009504612355    -0.000317674912076
1 84
    -0.000281930777442     0.000088406406567    -0.000362926222380
     0.000009504612487    -0.000317674912076    -0.000009504612356
    -0.000362926232489    -0.000088406407797    -0.000281930777442
1 85
    -0.000171393767763    -0.000742642705040    -0.001351736180546
    -0.000742642725731    -0.000171393767763     0.001351736199383
    -0.001360673387750     0.001360673368788     0.000321669300995
1 86
     0.000534675319272     0.002359406981272     0.000724345925010
     0.000081020770927    -0.000459697747174     0.008854928399874
     0.004740867032238     0.006688373020580    -0.002729047544694
1 87
    -0.000868635806617    -0.000691950493288    -0.001892177991564
    -0.000736328516434    -0.006730331264713     0.000727928124083
     0.001842270382355    -0.000701840013488    -0.006873254170243
1 88
    -0.000868635806618     0.001892177991539     0.000691950493294
    -0.001842270382375    -0.006873254170242    -0.000701840013504
     0.000736328516426     0.000727928124066    -0.006730331264713
1 89
     0.000818368041395     0.001058333314350    -0.000680798363927
    -0.000976103505011     0.000116327636795     0.005031192674647
     0.000623084530637     0.005041286041159     0.000750649691792
1 90
    -0.000670019085372     0.000000000000004    -0.000092981996107
    -0.000000000000004     0.000289003659232     0.000000000000000
    -0.000092981998697    -0.000000000000000    -0.000670019085372
1 91
    -0.000317674912076     0.000009504612223    -0.000009504612223
     0.000088406409031    -0.000281930777442    -0.000362926227438
    -0.000088406409029    -0.000362926227430    -0.000281930777442
1 92
    -0.000670019085372     0.000092981996105    -0.000000000000004
     0.000092981998698    -0.000670019085372    -0.000000000000000
     0.000000000000004     0.000000000000000     0.000289003659232
1 93
     0.000818368041395     0.000680798363920    -0.001058333314361
    -0.000623084530646     0.000750649691792     0.005041286041282
     0.000976103504997     0.005031192674525     0.000116327636794
1 94
    -0.000283938423128    -0.000000000000011    -0.001006561348503
     0.000000000000010    -0.002660240712121    -0.000000000000004
     0.000883386953354    -0.000000000000004    -0.002622446544401
1 95
    -0.000518658260249     0.000531982371337    -0.000531982371345
    -0.000431349841118    -0.003811969679479    -0.000790378051398
     0.000431349841114    -0.000790378051379    -0.003811969679480
1 96
    -0.000283938423129     0.001006561348490     0.000000000000010
    -0.000883386953364    -0.002622446544400    -0.000000000000004
    -0.000000000000009    -0.000000000000004    -0.002660240712121
1 97
     0.000750649691792    -0.005041285970952     0.000623084513303
    -0.005031192744719     0.000116327636787     0.000976103491421
    -0.000680798382905    -0.001058333329090     0.000818368041402
1 98
    -0.000171393767763    -0.001351736180525     0.000742642705035
    -0.001360673387771     0.000321669300995    -0.001360673368814
     0.000742642725735    -0.001351736199358    -0.000171393767763
1 99
    -0.000171393767763    -0.000742642705027     0.001351736180541
    -0.000742642725744    -0.000171393767763    -0.001351736199390
     0.001360673387755    -0.001360673368782     0.000321669300995
1 100
     0.000750649691792    -0.000623084513295     0.005041285971012
     0.000680798382914     0.000818368041402    -0.001058333329114
     0.005031192744658     0.000976103491395     0.000116327636787
1 101
    -0.000078822167363    -0.003782372269905     0.005042856273801
    -0.003782372375356    -0.000078822167397     0.005042856344194
    -0.005299060069976    -0.005299059996206     0.032903533244975
1 102
     0.000534675319292    -0.002359406981279     0.000724345924928
    -0.000081020770925    -0.000459697747197    -0.008854928399864
     0.004740867032297    -0.006688373020625    -0.002729047544691
1 103
     0.000534675319289    -0.000724345924924     0.002359406981305
    -0.004740867032351    -0.002729047544689    -0.006688373020785
     0.000081020770927    -0.008854928399648    -0.000459697747196
1 104
    -0.000078822167359    -0.005042856273726     0.003782372269949
     0.005299060070031     0.032903533244971    -0.005299059996336
     0.003782372375308     0.005042856344067    -0.000078822167397
1 105
    -0.000459697747166    -0.008854928276339    -0.000081020768622
    -0.006688373113896    -0.002729047544715     0.004740866966280
    -0.002359407047047     0.000724345935084     0.000534675319286
1 106
    -0.002593427238348    -0.000281294733314     0.000281294733317
    -0.000281294741159    -0.002593427238348    -0.000281294737240
     0.000281294741156    -0.000281294737233    -0.002593427238348
1 107
    -0.000459697747166     0.000081020768623     0.008854928276446
     0.002359407047075     0.000534675319285     0.000724345935104
     0.006688373113814     0.004740866966163    -0.002729047544715
1 108
    -0.002660240712121     0.000000000000007    -0.000000000000005
    -0.000000000000015    -0.000283938423122    -0.001006561362542
    -0.000000000000004     0.000883386941048    -0.002622446544407
1 109
    -0.000459697747204    -0.000081020768652    -0.008854928276422
    -0.002359407047078     0.000534675319305     0.000724345935007
    -0.006688373113874     0.004740866966222    -0.002729047544697
1 110
    -0.002593427238348     0.000281294733316    -0.000281294733320
     0.000281294741157    -0.002593427238348    -0.000281294737240
    -0.000281294741153    -0.000281294737233    -0.002593427238348
1 111
    -0.000459697747204     0.008854928276313     0.000081020768655
     0.006688373113955    -0.002729047544696     0.004740866966336
     0.002359407047048     0.000724345934991     0.000534675319304
1 112
    -0.002660240712121     0.000000000000004    -0.000000000000006
     0.000000000000003    -0.002622446544407     0.000883386941069
     0.000000000000014    -0.001006561362517    -0.000283938423122
1 113
    -0.015240557232397    -0.025934731008935    -0.011642262871352
    -0.025934731731902    -0.015240557232360     0.011642263033436
    -0.003914456214968     0.003914456160607     0.001495003325252
1 114
    -0.015240557232400     0.011642262871221     0.025934731009253
     0.003914456215008     0.001495003325255     0.003914456160710
     0.025934731731582     0.011642263033147    -0.015240557232360
1 115
    -0.006730331264708    -0.000736328495914     0.000727928113939
    -0.000691950512587    -0.000868635806604    -0.001892178017962
    -0.000701840023274     0.001842270356697    -0.006873254170260
1 116
    -0.003811969679479    -0.000431349829091    -0.000790378040379
     0.000531982386163    -0.000518658260246    -0.000531982378769
    -0.000790378062395     0.000431349835113    -0.003811969679483
1 117
    -0.002729047544682    -0.004740866900158    -0.006688372927544
    -0.000724345945140     0.000534675319282     0.002359407014189
    -0.008854928523078     0.000081020769817    -0.000459697747196
1 118
    -0.002729047544683     0.006688372927464     0.004740866900216
     0.008854928523185    -0.000459697747197     0.000081020769818
     0.000724345945129     0.002359407014134     0.000534675319283
1 119
    -0.003811969679480     0.000790378040370     0.000431349829097
     0.000790378062404    -0.003811969679483     0.000431349835124
    -0.000531982386158    -0.000531982378756    -0.000518658260245
1 120
    -0.006730331264708    -0.000727928113931     0.000736328495926
     0.000701840023282    -0.006873254170261     0.001842270356741
     0.000691950512577    -0.001892178017916    -0.000868635806604
1 121
     0.421160868316166    -0.100660322871666     0.100660322872733
     0.106164787899228    -0.168691253233777     0.158181657724705
    -0.106164787897776     0.158181657720854    -0.168691253233701
1 122
    -0.020284196646170     0.000000000000079     0.000184921940789
    -0.000000000000079    -0.002541939141652     0.000000000000014
     0.000184921945940    -0.000000000000014    -0.020284196646170
1 123
    -0.006873254170246    -0.001842270331014    -0.000701840003715
     0.001892178044296    -0.000868635806618     0.000691950502926
     0.000727928134219     0.000736328506188    -0.006730331264708
1 124
    -0.002622446544400    -0.000883386928736    -0.000000000000000
     0.001006561376552    -0.000283938423129     0.000000000000006
    -0.000000000000001     0.000000000000002    -0.002660240712121
1 125
     0.032903533244937     0.005299059922302    -0.005299059922377
    -0.005042856414287    -0.000078822167359     0.003782372322657
     0.005042856414237     0.003782372322565    -0.000078822167363
1 126
    -0.002622446544401     0.000000000000000     0.000883386928748
     0.000000000000001    -0.002660240712121     0.000000000000002
    -0.001006561376541     0.000000000000006    -0.000283938423128
1 127
    -0.006873254170248     0.000701840003707     0.001842270331039
    -0.000727928134229    -0.006730331264708     0.000736328506207
    -0.001892178044275     0.000691950502910    -0.000868635806616
1 128
    -0.020284196646170    -0.000184921940787    -0.000000000000072
    -0.000184921945943    -0.020284196646170    -0.000000000000014
     0.000000000000072     0.000000000000014    -0.002541939141652
1 129
     0.000372022304003    -0.011122872169401    -0.022811779668066
    -0.011122872479496     0.000372022304156    -0.022811779985750
     0.023400429734155     0.023400429407657     0.102964958435038
1 130
    -0.000459697747187    -0.000081020768601     0.008854928276440
    -0.002359407047093     0.000534675319311    -0.000724345935021
     0.006688373113859    -0.004740866966227    -0.002729047544720
1 131
     0.000881401444033     0.000421241873147     0.004903903461532
    -0.000395781033963    -0.000004210869668    -0.000395781028430
     0.004903903598130     0.000421241878993     0.000881401444037
1 132
     0.000292546655298    -0.001385804096056     0.001385804096073
    -0.001350278240230    -0.000294664621167    -0.000792374073484
     0.001350278240214    -0.000792374073466    -0.000294664621167
1 133
     0.000881401444033    -0.004903903461473    -0.000421241873152
    -0.004903903598190     0.000881401444037     0.000421241879005
     0.000395781033959    -0.000395781028422    -0.000004210869668
1 134
    -0.000459697747185    -0.008854928276333     0.000081020768600
    -0.006688373113938    -0.002729047544721    -0.004740866966340
     0.002359407047065    -0.000724345935007     0.000534675319310
1 135
     0.000372022303986     0.022811779667818     0.011122872169545
    -0.023400429734486     0.102964958435055     0.023400429408240
     0.011122872479369    -0.022811779985190     0.000372022304156
1 136
     0.001871558064695    -0.011513124295334     0.011513124295458
    -0.003863277306133    -0.015531854233612    -0.026439372849726
     0.003863277306102    -0.026439372849088    -0.015531854233609
1 137
     0.000534675319324    -0.002359406981335    -0.000724345924905
    -0.000081020770846    -0.000459697747194     0.008854928399867
    -0.004740867032324     0.006688373020641    -0.002729047544727
1 138
    -0.000171393767763     0.000742642705029     0.001351736180554
     0.000742642725742    -0.000171393767763     0.001351736199401
     0.001360673387742     0.001360673368770     0.000321669300995
1 139
    -0.000281930777442    -0.000088406406567     0.000362926222380
    -0.000009504612487    -0.000317674912077    -0.000009504612352
     0.000362926232489    -0.000088406407800    -0.000281930777442
1 140
    -0.000281930777442    -0.000362926222375     0.000088406406568
    -0.000362926232494    -0.000281930777442    -0.000088406407802
     0.000009504612486    -0.000009504612352    -0.000317674912077
1 141
    -0.000171393767763    -0.001351736180537    -0.000742642705037
    -0.001360673387759     0.000321669300995     0.001360673368804
    -0.000742642725733     0.001351736199368    -0.000171393767763
1 142
     0.000534675319325     0.000724345924898     0.002359406981366
     0.004740867032380    -0.002729047544728     0.006688373020803
     0.000081020770842     0.008854928399651    -0.000459697747193
1 143
    -0.000868635806584    -0.001892177991598    -0.000691950493252
     0.001842270382422    -0.006873254170275    -0.000701840013495
    -0.000736328516480     0.000727928124088    -0.006730331264713
1 144
    -0.000868635806586     0.000691950493241     0.001892177991619
     0.000736328516491    -0.006730331264713     0.000727928124106
    -0.001842270382397    -0.000701840013477    -0.006873254170273
1 145
    -0.000004210869670    -0.000395781022944    -0.000395781022915
     0.000421241884908     0.000881401444033     0.004903903529892
     0.000421241884869     0.004903903529773     0.000881401444040
1 146
    -0.000317674912077    -0.000009504612223    -0.000009504612220