512  
1    

1    
  0.0100000000000000  -0.0000000000000443   0.0000000000000406
  -0.1338629084    0.0000000000    0.0000000300
  -0.0042175463   -0.0010115643   -0.0010115113
  -0.0010308644   -0.0002318083   -0.0002332166
  -0.0003289252   -0.0000510116   -0.0000520141
  -0.0003706042    0.0000015046   -0.0000004287
  -0.0003289910    0.0000532655    0.0000514354
  -0.0010307493    0.0002319302    0.0002331820
  -0.0042175457    0.0010115200    0.0010115224
   0.0016964985    0.0010633448    0.0015879920
   0.0001522798   -0.0002584640    0.0001173696
   0.0000268841   -0.0000659309    0.0000479773
  -0.0000015988   -0.0000490672    0.0000094284
  -0.0000015420   -0.0000095353    0.0000487269
   0.0000273832   -0.0000484703    0.0000644341
   0.0001518940   -0.0001176828    0.0002588717
   0.0016965434   -0.0015879421   -0.0010633357
  -0.0000037408    0.0002302522    0.0001124389
   0.0000037680   -0.0000879524    0.0000016226
  -0.0000096028   -0.0000475594   -0.0000044447
  -0.0000036738   -0.0000127912    0.0000125834
  -0.0000096430    0.0000044872    0.0000474109
   0.0000037454   -0.0000015982    0.0000878986
  -0.0000038205   -0.0001129397   -0.0002300785
  -0.0000195516   -0.0001159038    0.0001156976
   0.0000004064    0.0000513397    0.0000385189
  -0.0000081002   -0.0000493473   -0.0000063794
   0.0000024149   -0.0000122518    0.0000066502
   0.0000024375   -0.0000068291    0.0000119982
  -0.0000081404    0.0000064350    0.0000494688
   0.0000003745   -0.0000388312   -0.0000513764
  -0.0000059411   -0.0000012303    0.0000471503
  -0.0000060885   -0.0000472359    0.0000013869
  -0.0000001746    0.0000001481   -0.0000001883
  -0.0000081604    0.0000114918    0.0000059042
   0.0000000706   -0.0000025474    0.0000025700
  -0.0000081347   -0.0000058745   -0.0000113730
  -0.0000000621    0.0000001110   -0.0000001417
  -0.0000080882    0.0000059680    0.0000114685
   0.0000000834    0.0000026627   -0.0000026535
  -0.0000081197   -0.0000114238   -0.0000058057
   0.0000011980   -0.0000493796    0.0000366773
  -0.0000045669   -0.0000062031    0.0000222888
  -0.0000044564   -0.0000222999    0.0000060879
   0.0000011934   -0.0000369789    0.0000496256
  -0.0000069295   -0.0000060020    0.0000515697
   0.0000024864   -0.0000083088    0.0000147421
   0.0000023804   -0.0000148841    0.0000083273
  -0.0000068750   -0.0000513670    0.0000061171
  -0.0000036269   -0.0002259533    0.0001089430
  -0.0000129678   -0.0000374310    0.0000378632
  -0.0000036959   -0.0001092848    0.0002259487
   0.0000072348   -0.0000228162    0.0000693924
  -0.0000079570   -0.0000038930    0.0000503380
  -0.0000023185   -0.0000145881    0.0000144213
  -0.0000079818   -0.0000504422    0.0000040408
   0.0000073094   -0.0000693014    0.0000226235
   0.0016773036   -0.0010599198    0.0015756779
   0.0016772861   -0.0015756778    0.0010599595
   0.0001567096   -0.0000379324    0.0002660760
   0.0000289280   -0.0000063145    0.0000891260
  -0.0000006898    0.0000102752    0.0000510813
  -0.0000007234   -0.0000514142   -0.0000097852
   0.0000291483   -0.0000892733    0.0000064720
   0.0001566506   -0.0002659909    0.0000379916
   0.0016965229    0.0015879430    0.0010633715
   0.0001518868    0.0001169712   -0.0002586144
   0.0000270685    0.0000485105   -0.0000652336
  -0.0000016199    0.0000100742   -0.0000490259
  -0.0000016955    0.0000498063   -0.0000095989
   0.0000266120    0.0000674110   -0.0000477492
   0.0001523376    0.0002587210   -0.0001169106
   0.0016965475   -0.0010633568   -0.0015879659
  -0.0000168364    0.0000408134    0.0000401775
   0.0000251835   -0.0000022460   -0.0000013898
  -0.0000041010   -0.0000126445   -0.0000126708
  -0.0000036862    0.0000000453   -0.0000000236
  -0.0000041226    0.0000127866    0.0000124950
   0.0000250181    0.0000016836    0.0000023743
  -0.0000168491   -0.0000397631   -0.0000405841
   0.0000242338   -0.0000000073    0.0000000099
  -0.0000061536    0.0000086515    0.0000248584
   0.0000010288   -0.0000122781   -0.0000065452
   0.0000021597   -0.0000024351    0.0000009465
   0.0000021563   -0.0000010074    0.0000023387
   0.0000009969    0.0000065167    0.0000121764
  -0.0000062489   -0.0000246933   -0.0000081806
   0.0000080089    0.0000058522    0.0000188374
   0.0000079927   -0.0000190514   -0.0000059693
  -0.0000082677   -0.0000097004    0.0000077340
   0.0000067215    0.0000013341    0.0000009345
   0.0000031662    0.0000010144   -0.0000011281
   0.0000067044   -0.0000010047   -0.0000013879
  -0.0000082105   -0.0000077180    0.0000097293
   0.0000028176   -0.0000011414    0.0000100988
   0.0000052984   -0.0000063272    0.0000062977
   0.0000028524   -0.0000101818    0.0000010958
  -0.0000068902    0.0000514245   -0.0000060594
   0.0000024802    0.0000147723   -0.0000082668
   0.0000024407    0.0000082310   -0.0000147786
  -0.0000069381    0.0000061094   -0.0000514578
   0.0000011882    0.0000370046   -0.0000497479
  -0.0000044732    0.0000226278   -0.0000062004
  -0.0000044397    0.0000063427   -0.0000223568
   0.0000012303    0.0000497117   -0.0000368968
   0.0000053704    0.0000890662    0.0000001506
   0.0000268744    0.0000034569   -0.0000032049
   0.0000053951   -0.0000002878   -0.0000894192
   0.0000278972   -0.0000003219    0.0000002715
   0.0000054367    0.0000000183    0.0000897769
   0.0000266610   -0.0000040043    0.0000041438
   0.0000054989   -0.0000897735   -0.0000000122
   0.0000279237   -0.0000003370    0.0000000705
   0.0001528335    0.0002598780    0.0001157023
   0.0001524656   -0.0001161622   -0.0002600324
   0.0000682980    0.0000077323   -0.0000074039
   0.0000387205    0.0000041666    0.0000085229
   0.0000277792    0.0000469434    0.0000668722
   0.0000273773   -0.0000683542   -0.0000462469
   0.0000387243   -0.0000088685   -0.0000041156
   0.0000681337    0.0000076778   -0.0000081269
  -0.0042056734    0.0010016514   -0.0010016907
   0.0002026924    0.0000015729   -0.0000017731
   0.0000688779    0.0000176002    0.0000074803
   0.0000261479    0.0000086797    0.0000017255
  -0.0003290475   -0.0000531673    0.0000534467
   0.0000263195   -0.0000016672   -0.0000083722
   0.0000689126   -0.0000074842   -0.0000190905
   0.0002030495    0.0000021696   -0.0000016122
  -0.0000038563    0.0001133372    0.0002300536
   0.0000037533    0.0000014648   -0.0000874006
  -0.0000096646   -0.0000041997   -0.0000475739
  -0.0000037159    0.0000128112   -0.0000125778
  -0.0000097360    0.0000478457    0.0000043504
   0.0000038079    0.0000871068   -0.0000013273
  -0.0000037937   -0.0002299370   -0.0001135766
  -0.0000196359    0.0001156536   -0.0001154330
  -0.0000061943    0.0000249417    0.0000082073
   0.0000009961   -0.0000065974   -0.0000121733
   0.0000022242    0.0000010181   -0.0000023228
   0.0000022204    0.0000023499   -0.0000010287
   0.0000009020    0.0000123340    0.0000066181
  -0.0000062410   -0.0000080743   -0.0000246858
   0.0000080475    0.0000189991    0.0000061717
   0.0000080261   -0.0000062020   -0.0000188654
   0.0000000215    0.0000053197    0.0000053145
   0.0000031985    0.0000012491    0.0000012655
   0.0000028665    0.0000000036   -0.0000000197
   0.0000032065   -0.0000013161   -0.0000012924
  -0.0000000071   -0.0000051886   -0.0000054061
   0.0000050418    0.0000043465    0.0000043700
   0.0000078421    0.0000000013   -0.0000000322
   0.0000050665   -0.0000044096   -0.0000042972
   0.0000034598    0.0000149577    0.0000090862
   0.0000034308    0.0000048733    0.0000007132
   0.0000034407   -0.0000008013   -0.0000049066
   0.0000034827   -0.0000092082   -0.0000148046
  -0.0000048615   -0.0000012237    0.0000455944
   0.0000093842   -0.0000079406    0.0000189393
   0.0000093800   -0.0000191142    0.0000078511
  -0.0000049673   -0.0000456845    0.0000012371
  -0.0000079793    0.0000506860   -0.0000041070
  -0.0000023246    0.0000146319   -0.0000146158
  -0.0000079477    0.0000041766   -0.0000504560
   0.0000071641    0.0000230696   -0.0000695797
  -0.0000036942    0.0001096731   -0.0002263134
  -0.0000131469    0.0000385362   -0.0000379880
  -0.0000035335    0.0002264056   -0.0001096365
   0.0000072919    0.0000694850   -0.0000226931
   0.0000273394    0.0000694496    0.0000463783
   0.0000278801   -0.0000469935   -0.0000673841
   0.0000387179   -0.0000046184   -0.0000085375
   0.0000684280   -0.0000090514    0.0000073447
   0.0001525491    0.0001153045    0.0002602505
   0.0001529981   -0.0002599463   -0.0001152779
   0.0000682826   -0.0000076067    0.0000087157
   0.0000387121    0.0000084766    0.0000042288
  -0.0010282666    0.0002349848   -0.0002365346
   0.0000685904   -0.0000184251    0.0000065065
   0.0000557190   -0.0000002415    0.0000002299
   0.0000685716    0.0000161267   -0.0000064884
  -0.0010287180   -0.0002345707    0.0002358072
   0.0000686388    0.0000065191   -0.0000177015
   0.0000558047   -0.0000004693    0.0000001271
   0.0000684645   -0.0000063678    0.0000185486
   0.0001539995    0.0000390659    0.0002625879
   0.0000663717   -0.0000070123   -0.0000069087
   0.0000374951    0.0000042415   -0.0000070826
   0.0000276558   -0.0000082107   -0.0000866378
   0.0000277912    0.0000866529    0.0000083570
   0.0000375152    0.0000070091   -0.0000041357
   0.0000662373    0.0000071244    0.0000065561
   0.0001539793   -0.0002626322   -0.0000395426
   0.0000003476    0.0000388713    0.0000512315
  -0.0000081091   -0.0000062996   -0.0000493594
   0.0000024306    0.0000067303   -0.0000119942
   0.0000024186    0.0000121803   -0.0000066823
  -0.0000080694    0.0000493084    0.0000064448
   0.0000003674   -0.0000510161   -0.0000388108
  -0.0000060853    0.0000470294   -0.0000012497
  -0.0000060317    0.0000012594   -0.0000470302
  -0.0000082253    0.0000078042   -0.0000096559
   0.0000066937    0.0000008918    0.0000013723
   0.0000031357   -0.0000011146    0.0000011057
   0.0000066811   -0.0000013973   -0.0000008883
  -0.0000082629    0.0000098240   -0.0000076551
   0.0000028654    0.0000100552   -0.0000011230
   0.0000053396    0.0000062466   -0.0000062637
   0.0000028220    0.0000009915   -0.0000099268
   0.0000034672    0.0000091159    0.0000148339
   0.0000034596    0.0000007702    0.0000048668
   0.0000034628   -0.0000049409   -0.0000007870
   0.0000034619   -0.0000150015   -0.0000090877
  -0.0000049685    0.0000456132   -0.0000011356
   0.0000093752    0.0000188813   -0.0000078366
   0.0000092762    0.0000075326   -0.0000186861
  -0.0000048568    0.0000012190   -0.0000455220
  -0.0000021704    0.0000151213    0.0000149206
  -0.0000020939    0.0000000292   -0.0000000306
  -0.0000021418   -0.0000151183   -0.0000149405
   0.0000256448   -0.0000064916   -0.0000059111
  -0.0000178826    0.0001145760    0.0001145509
   0.0000266050    0.0000000193    0.0000000041
  -0.0000177923   -0.0001148656   -0.0001143694
   0.0000256374    0.0000062681    0.0000060242
  -0.0000007704    0.0000520462    0.0000096165
  -0.0000006663   -0.0000097746   -0.0000513274
   0.0000289471    0.0000068246   -0.0000892479
   0.0001566869    0.0000379343   -0.0002659573
   0.0016773021    0.0015756850   -0.0010599532
   0.0016772962    0.0010599415   -0.0015756488
   0.0001567058    0.0002662396   -0.0000382819
   0.0000290801    0.0000891473   -0.0000065893
  -0.0003291776    0.0000553582   -0.0000542261
   0.0000262042   -0.0000097572   -0.0000007332
   0.0000689200   -0.0000197955   -0.0000077439
   0.0002026949   -0.0000014291    0.0000017420
  -0.0042056693   -0.0010016474    0.0010017184
   0.0002029310   -0.0000017121    0.0000014532
   0.0000688845    0.0000075570    0.0000200935
   0.0000262263    0.0000007401    0.0000085264
   0.0000276720    0.0000085882    0.0000865949
   0.0000375646   -0.0000046910    0.0000071481
   0.0000664016    0.0000056425    0.0000069634
   0.0001539463   -0.0000391172   -0.0002626741
   0.0001538703    0.0002629917    0.0000391964
   0.0000662736   -0.0000072046   -0.0000060690
   0.0000375080   -0.0000075850    0.0000043104
   0.0000278712   -0.0000868414   -0.0000084515
   0.0000047835    0.0000251129    0.0000671801
   0.0000253007   -0.0000003237    0.0000002947
   0.0000048223   -0.0000249873   -0.0000674920
   0.0000237538    0.0000037019   -0.0000033150
   0.0000048915    0.0000673884    0.0000247048
   0.0000252881   -0.0000003245    0.0000000014
   0.0000048798   -0.0000672189   -0.0000248420
   0.0000237912   -0.0000039808    0.0000034657
   0.0330232912    0.0233431599    0.0233432255
   0.0017917592   -0.0005395524   -0.0005400760
   0.0005591908   -0.0001057541   -0.0001034545
   0.0002106869   -0.0000041475   -0.0000029752
   0.0002106727    0.0000020907    0.0000035300
   0.0005590824    0.0001023807    0.0001038813
   0.0017918512    0.0005388635    0.0005408516
   0.0330233744   -0.0233431821   -0.0233432207
   0.0001578768   -0.0005339052    0.0002258464
  -0.0000300835    0.0001773217   -0.0000321028
   0.0000117190    0.0000604981    0.0000029654
   0.0000040312    0.0000156832   -0.0000157129
   0.0000117429   -0.0000032254   -0.0000604712
  -0.0000298554    0.0000314942   -0.0001768137
   0.0001576697   -0.0002257367    0.0005339205
   0.0000089527    0.0002489360   -0.0002489241
   0.0000336867   -0.0001048102   -0.0000089877
  -0.0000089962    0.0000603460   -0.0000152754
  -0.0000014663    0.0000197265   -0.0000105719
  -0.0000014866    0.0000105339   -0.0000198033
  -0.0000089639    0.0000153040   -0.0000600344
   0.0000335735    0.0000096813    0.0001039841
  -0.0000281061    0.0000188581   -0.0000961670
  -0.0000287878    0.0000962669   -0.0000192194
   0.0000147886   -0.0000032393    0.0000008260
  -0.0000073818    0.0000166637   -0.0000134276
   0.0000010021    0.0000114347   -0.0000115165
  -0.0000073536    0.0000135065   -0.0000165640
   0.0000146917   -0.0000007626    0.0000032509
  -0.0000106904    0.0000045607   -0.0000328709
   0.0000017084    0.0000082250   -0.0000081435
  -0.0000107151    0.0000329689   -0.0000044714
   0.0000152384    0.0000029606   -0.0000006119
   0.0000060834   -0.0000010167   -0.0000168942
   0.0000061245    0.0000168802    0.0000010360
   0.0000151435    0.0000006564   -0.0000030558
   0.0000151654   -0.0000008448    0.0000030796
   0.0000061324   -0.0000171230   -0.0000009281
   0.0000061039    0.0000009131    0.0000169732
   0.0000151591   -0.0000030867    0.0000005328
   0.0000343250    0.0001034729   -0.0000122374
  -0.0000088085    0.0000341042   -0.0000335841
   0.0000342120    0.0000127198   -0.0001032553
   0.0000066816    0.0000052781   -0.0000343993
  -0.0000070580   -0.0000166064   -0.0000578007
   0.0000171646    0.0000091475   -0.0000090998
  -0.0000070891    0.0000581264    0.0000168744
   0.0000067327    0.0000347948   -0.0000054022
   0.0001539744    0.0005305170    0.0002189679
   0.0001537768   -0.0002190168   -0.0005314378
   0.0000368233    0.0000197108   -0.0001054814
   0.0000106316    0.0000091585   -0.0000408326
   0.0000133662    0.0000014954   -0.0000577088
   0.0000133248    0.0000577145   -0.0000016137
   0.0000107237    0.0000411986   -0.0000091814
   0.0000367799    0.0001056963   -0.0000202298
   0.0327260742   -0.0227473316    0.0227473468
  -0.0003029960    0.0002433760   -0.0003780354
  -0.0000938567    0.0001005846   -0.0001006797
  -0.0000210622    0.0000346237   -0.0000323756
   0.0002109070   -0.0000056641    0.0000050281
  -0.0000207565    0.0000331052   -0.0000340386
  -0.0000940498    0.0001007465   -0.0001003774
  -0.0003029399    0.0003776191   -0.0002432255
   0.0001579516    0.0002260138   -0.0005337895
  -0.0000300321   -0.0000315739    0.0001771345
   0.0000117969    0.0000027642    0.0000604158
   0.0000040207   -0.0000158646    0.0000158116
   0.0000117058   -0.0000607712   -0.0000028114
  -0.0000302781   -0.0001774957    0.0000317577
   0.0001579340    0.0005329357   -0.0002258479
   0.0000089286   -0.0002489877    0.0002489255
  -0.0000106926   -0.0000321532   -0.0000319000
   0.0000154305    0.0000115414    0.0000111393
   0.0000026384    0.0000020862    0.0000020764
   0.0000026727   -0.0000021068   -0.0000020878
   0.0000153263   -0.0000117563   -0.0000115334
  -0.0000106821    0.0000325336    0.0000318140
  -0.0000002672   -0.0000124225   -0.0000119259
  -0.0000003330    0.0000121542    0.0000122015
   0.0000051859    0.0000028958   -0.0000145585
  -0.0000009352    0.0000030402    0.0000021787
  -0.0000021977    0.0000028679   -0.0000028864
  -0.0000009425   -0.0000023523   -0.0000030852
   0.0000052292    0.0000147005   -0.0000029298
  -0.0000029764   -0.0000035043   -0.0000114452
   0.0000038376    0.0000041701   -0.0000041105
  -0.0000028229    0.0000114658    0.0000034170
  -0.0000065670   -0.0000140903   -0.0000124468
  -0.0000003505   -0.0000001294    0.0000008508
  -0.0000003451   -0.0000010390    0.0000000944
  -0.0000064809    0.0000125383    0.0000141677
  -0.0000098402   -0.0000071694   -0.0000336149
  -0.0000020414    0.0000011316   -0.0000100454
  -0.0000020985    0.0000101834   -0.0000009954
  -0.0000098378    0.0000337318    0.0000071846
  -0.0000070219   -0.0000580588   -0.0000166147
   0.0000171796   -0.0000093683    0.0000086519
  -0.0000070006    0.0000166551    0.0000580189
   0.0000066935   -0.0000052520    0.0000344418
   0.0000344291   -0.0000130378    0.0001032859
  -0.0000090106   -0.0000339510    0.0000336049
   0.0000344766   -0.0001040160    0.0000122851
   0.0000067856   -0.0000348669    0.0000052401
  -0.0000282770   -0.0001757916   -0.0000343097
  -0.0000279596    0.0000344411    0.0001753859
  -0.0000279131   -0.0000025330    0.0000016459
  -0.0000278998    0.0000033088   -0.0000015462
  -0.0000282294   -0.0000337788   -0.0001752446
  -0.0000283423    0.0001757999    0.0000343702
  -0.0000279975    0.0000023484   -0.0000031465
  -0.0000279361   -0.0000014374    0.0000028429
   0.0017848253    0.0005405232   -0.0005416522
  -0.0001166928   -0.0000086217   -0.0000123165
  -0.0000645512    0.0000051646    0.0000019154
  -0.0000420848    0.0000126038   -0.0000017748
   0.0005593217   -0.0001086436    0.0001069467
  -0.0000420038    0.0000019283   -0.0000115379
  -0.0000646187   -0.0000018589   -0.0000047609
  -0.0001164582    0.0000128994    0.0000109185
  -0.0003101111   -0.0002490380   -0.0003728468
  -0.0001180711    0.0000140767   -0.0000109007
  -0.0000427426    0.0000137518    0.0000033428
  -0.0000218748    0.0000332746    0.0000352216
  -0.0000215616   -0.0000362919   -0.0000326373
  -0.0000427166   -0.0000034339   -0.0000126523
  -0.0001180841    0.0000114707   -0.0000145208
  -0.0003100377    0.0003723397    0.0002487664
   0.0000336893   -0.0000099641   -0.0001040969
  -0.0000089560   -0.0000152138    0.0000602924
  -0.0000014615   -0.0000106429    0.0000197558
  -0.0000014802   -0.0000197839    0.0000105413
  -0.0000089321   -0.0000602771    0.0000154786
   0.0000337124    0.0001043565    0.0000092126
  -0.0000284976   -0.0000959226    0.0000192222
  -0.0000284221   -0.0000191972    0.0000960902
   0.0000051800   -0.0000148263    0.0000030744
  -0.0000009197    0.0000023452    0.0000030101
  -0.0000021696   -0.0000028556    0.0000028412
  -0.0000009361   -0.0000030093   -0.0000023104
   0.0000051768   -0.0000029897    0.0000147181
  -0.0000028230   -0.0000116129   -0.0000034672
   0.0000038301   -0.0000041268    0.0000041379
  -0.0000028506    0.0000036243    0.0000114647
   0.0000015995   -0.0000088502   -0.0000088110
  -0.0000013890   -0.0000015435   -0.0000015586
  -0.0000013739    0.0000015006    0.0000015257
   0.0000015589    0.0000088284    0.0000087881
   0.0000020965   -0.0000106166   -0.0000104856
   0.0000044989   -0.0000055072   -0.0000055154
   0.0000045677    0.0000055153    0.0000054872
   0.0000021066    0.0000106081    0.0000106249
   0.0000001758   -0.0000168893   -0.0000093714
   0.0000040203   -0.0000009011    0.0000008581
   0.0000002134    0.0000093119    0.0000168626
  -0.0000130167    0.0000061201    0.0000009995
  -0.0000258975   -0.0000217674   -0.0000969990
   0.0000023121    0.0000109932   -0.0000106806
  -0.0000259733    0.0000970344    0.0000219038
  -0.0000131031   -0.0000006988   -0.0000059038
   0.0000133547   -0.0000580970    0.0000017210
   0.0000134139   -0.0000020147    0.0000575817
   0.0000107176   -0.0000093115    0.0000408199
   0.0000370130   -0.0000205429    0.0001054467
   0.0001540965    0.0002192078    0.0005312793
   0.0001539134   -0.0005313684   -0.0002189700
   0.0000369140   -0.0001055548    0.0000203966
   0.0000107939   -0.0000413604    0.0000091104
   0.0005590508    0.0001049771   -0.0001060142
  -0.0000419525   -0.0000116649    0.0000009661
  -0.0000645972   -0.0000043909   -0.0000021958
  -0.0001171088    0.0000121022    0.0000124044
   0.0017845282   -0.0005413433    0.0005428934
  -0.0001171143   -0.0000129536   -0.0000125388
  -0.0000646161    0.0000024930    0.0000044668
  -0.0000420544   -0.0000012905    0.0000114133
  -0.0000947265   -0.0000980089   -0.0001023660
  -0.0000652465   -0.0000035289    0.0000011645
  -0.0000652730    0.0000043909   -0.0000015283
  -0.0000948229    0.0000988604    0.0001025269
  -0.0000951604   -0.0001025104   -0.0000984355
  -0.0000652742    0.0000018466   -0.0000039373
  -0.0000653522   -0.0000011308    0.0000034971
  -0.0000948429    0.0001027143    0.0000985509
   0.0000354469   -0.0000184401   -0.0001051839
  -0.0000295485    0.0000047232    0.0000023604
   0.0000094697    0.0000078435    0.0000428661
  -0.0000200214   -0.0000035533    0.0000036015
   0.0000095099   -0.0000433087   -0.0000077884
  -0.0000296291   -0.0000021738   -0.0000044565
   0.0000353064    0.0001052101    0.0000186206
  -0.0000686565    0.0000056643   -0.0000055145
   0.0000147301    0.0000006483   -0.0000032414
  -0.0000073749   -0.0000134428    0.0000166147
   0.0000010450   -0.0000114628    0.0000114077
  -0.0000074008   -0.0000165131    0.0000134231
   0.0000147425    0.0000031170   -0.0000008735
  -0.0000106693   -0.0000328886    0.0000044696
   0.0000017327   -0.0000082645    0.0000081197
  -0.0000106789   -0.0000044393    0.0000329095
  -0.0000065072   -0.0000124627   -0.0000140993
  -0.0000003196    0.0000010299   -0.0000001608
  -0.0000003260    0.0000001595   -0.0000009776
  -0.0000065456    0.0000142710    0.0000124782
  -0.0000099006   -0.0000336250   -0.0000072117
  -0.0000019790   -0.0000102129    0.0000008459
  -0.0000021265   -0.0000010081    0.0000101069
  -0.0000098307    0.0000072235    0.0000336909
   0.0000002237   -0.0000094232   -0.0000168320
   0.0000039752    0.0000008728   -0.0000008721
   0.0000002446    0.0000167947    0.0000093121
  -0.0000130481    0.0000012029    0.0000058081
  -0.0000258985   -0.0000967048   -0.0000218041
   0.0000025209   -0.0000113252    0.0000109209
  -0.0000255607    0.0000218383    0.0000969083
  -0.0000129796   -0.0000058460   -0.0000012983
   0.0000056469   -0.0000147978   -0.0000146335
   0.0000057004    0.0000145654    0.0000146717
  -0.0000184658    0.0000011945    0.0000009780
  -0.0000669767    0.0000041480    0.0000037983
   0.0000122239   -0.0002504152   -0.0002502228
   0.0000121528    0.0002503556    0.0002503497
  -0.0000668452   -0.0000039219   -0.0000037942
  -0.0000185429   -0.0000008572   -0.0000010311
   0.0002109369    0.0000035209   -0.0000044072
  -0.0000208721   -0.0000345850    0.0000324746
  -0.0000934486   -0.0001000971    0.0001004293
  -0.0003031098   -0.0002431845    0.0003784060
   0.0327259737    0.0227472480   -0.0227474185
  -0.0003030044   -0.0003781922    0.0002432224
  -0.0000936987   -0.0001008287    0.0001004283
  -0.0000206506   -0.0000337876    0.0000339668
  -0.0000218278   -0.0000330105   -0.0000351011
  -0.0000427127   -0.0000126725   -0.0000037513
  -0.0001176836   -0.0000105668    0.0000112356
  -0.0003100608    0.0002490963    0.0003730443
  -0.0003100957   -0.0003729393   -0.0002488679
  -0.0001174273   -0.0000118435    0.0000127142
  -0.0000427785    0.0000040646    0.0000124210
  -0.0000215827    0.0000359744    0.0000324650
   0.0000094350   -0.0000078671   -0.0000428831
  -0.0000295483   -0.0000037719   -0.0000023478
   0.0000352201    0.0000179929    0.0001051111
  -0.0000686121   -0.0000054412    0.0000053119
   0.0000351890   -0.0001053308   -0.0000178965
  -0.0000296607    0.0000030125    0.0000041391
   0.0000094964    0.0000432882    0.0000077265
  -0.0000200436    0.0000037368   -0.0000037484
   0.0000048898   -0.0000045094   -0.0000349216
   0.0000049120    0.0000045844    0.0000349584
  -0.0000144827   -0.0000084077    0.0000031412
  -0.0000145815   -0.0000027654    0.0000083518
   0.0000049482   -0.0000353704   -0.0000046502
   0.0000049645    0.0000353309    0.0000045661
  -0.0000145797    0.0000032208   -0.0000085298
  -0.0000145058    0.0000086533   -0.0000033306
