nqpoint: 500    
npath: 10     
segment_nqpoint:
- 50
- 50
- 50
- 50
- 50
- 50
- 50
- 50
- 50
- 50
labels:
- [ 'G', 'X' ]
- [ 'X', 'W' ]
- [ 'W', 'K' ]
- [ 'K', 'G' ]
- [ 'G', 'L' ]
- [ 'L', 'U' ]
- [ 'U', 'W' ]
- [ 'W', 'L' ]
- [ 'L', 'K|U' ]
- [ 'K|U', 'X' ]
reciprocal_lattice:
- [  -0.17720724,   0.17720724,   0.17720724 ] # a*
- [   0.17720724,  -0.17720724,   0.17720724 ] # b*
- [   0.17720724,   0.17720724,  -0.17720724 ] # c*
natom: 2      
lattice:
- [     0.000000000000000,     2.821555113426400,     2.821555113426400 ] # a
- [     2.821555113426400,     0.000000000000000,     2.821555113426400 ] # b
- [     2.821555113426400,     2.821555113426400,     0.000000000000000 ] # c
points:
- symbol: Si # 1
  coordinates: [  0.000000000000000,  0.000000000000000,  0.000000000000000 ]
  mass: 28.085000
  magnetic_moment: 0.00000000
- symbol: Si # 2
  coordinates: [  0.250000000000000,  0.250000000000000,  0.250000000000000 ]
  mass: 28.085000
  magnetic_moment: 0.00000000

phonon:
- q-position: [    0.0000000,    0.0000000,    0.0000000 ]
  distance:    0.0000000
  band:
  - # 1
    frequency:   -0.0000006640
    eigenvector:
    - # atom 1
      - [ -0.70710678118655,  0.00000000000000 ]
      - [  0.00000000000000,  0.00000000000000 ]
      - [ -0.00000000000000,  0.00000000000000 ]
    - # atom 2
      - [ -0.70710678118655,  0.00000000000000 ]
      - [  0.00000000000000,  0.00000000000000 ]
      - [ -0.00000000000000,  0.00000000000000 ]
  - # 2
    frequency:   -0.0000006546
    eigenvector:
    - # atom 1
      - [  0.00000000000000,  0.00000000000000 ]
      - [  0.12173069295134,  0.00000000000000 ]
      - [  0.69654981041817,  0.00000000000000 ]
    - # atom 2
      - [ -0.00000000000000,  0.00000000000000 ]
      - [  0.12173069295134,  0.00000000000000 ]
      - [  0.69654981041817,  0.00000000000000 ]
  - # 3
    frequency:   -0.0000006161
    eigenvector:
    - # atom 1
      - [  0.00000000000000,  0.00000000000000 ]
      - [ -0.69654981041817,  0.00000000000000 ]
      - [  0.12173069295134,  0.00000000000000 ]
    - # atom 2
      - [ -0.00000000000000,  0.00000000000000 ]
      - [ -0.69654981041817,  0.00000000000000 ]
      - [  0.12173069295134,  0.00000000000000 ]
  - # 4
    frequency:   13.5867693722
    eigenvector:
    - # atom 1
      - [  0.00000000000000,  0.00000000000000 ]
      - [  0.64193356347092,  0.00000000000000 ]
      - [ -0.29651526114102,  0.00000000000000 ]
    - # atom 2
      - [  0.00000000000000,  0.00000000000000 ]
      - [ -0.64193356347092,  0.00000000000000 ]
      - [  0.29651526114102,  0.00000000000000 ]
  - # 5
    frequency:   13.5867693722
    eigenvector:
    - # atom 1
      - [ -0.70710678118655,  0.00000000000000 ]
      - [  0.00000000000000,  0.00000000000000 ]
      - [  0.00000000000000,  0.00000000000000 ]
    - # atom 2
      - [  0.70710678118655,  0.00000000000000 ]
      - [ -0.00000000000000,  0.00000000000000 ]
      - [  0.00000000000000,  0.00000000000000 ]
  - # 6
    frequency:   13.5867693722
    eigenvector:
    - # atom 1
      - [  0.00000000000000,  0.00000000000000 ]
      - [ -0.29651526114102,  0.00000000000000 ]
      - [ -0.64193356347092,  0.00000000000000 ]
    - # atom 2
      - [  0.00000000000000,  0.00000000000000 ]
      - [  0.29651526114102,  0.00000000000000 ]
      - [  0.64193356347092,  0.00000000000000 ]

- q-position: [    0.0102041,    0.0000000,    0.0102041 ]
  distance:    0.0036165
  band:
  - # 1
    frequency:    0.1195861082
    eigenvector:
    - # atom 1
      - [ -0.01042125238827,  0.00000000000000 ]
      - [ -0.00000000000001,  0.00000000000001 ]
      - [  0.70049193910768,  0.09592935287922 ]
    - # atom 2
      - [ -0.00867303945026, -0.01275312629321 ]
      - [ -0.00000000000001,  0.00000000000001 ]
      - [  0.70037583805025,  0.09610318221505 ]
  - # 2
    frequency:    0.1195861082
    eigenvector:
    - # atom 1
      - [  0.70702998345096,  0.00000000000000 ]
      - [ -0.00000000000031,  0.00000000000000 ]
      - [  0.01032488503211,  0.00141394851873 ]
    - # atom 2
      - [  0.70693854105011, -0.00018797441544 ]
      - [ -0.00000000000031,  0.00000000000000 ]
      - [  0.01032317376321, -0.01145844348115 ]
  - # 3
    frequency:    0.2640359127
    eigenvector:
    - # atom 1
      - [  0.00000000000031,  0.00000000000000 ]
      - [  0.70709435579440, -0.00419189738759 ]
      - [  0.00000000000001,  0.00000000000001 ]
    - # atom 2
      - [  0.00000000000031, -0.00000000000000 ]
      - [  0.70709435579440, -0.00419189738759 ]
      - [  0.00000000000001,  0.00000000000000 ]
  - # 4
    frequency:   13.5849307533
    eigenvector:
    - # atom 1
      - [  0.00000000000000,  0.00000000000000 ]
      - [  0.00000000000102,  0.00000000000000 ]
      - [ -0.70693570802108,  0.01555328662156 ]
    - # atom 2
      - [ -0.00028316247124, -0.01287044127453 ]
      - [ -0.00000000000102, -0.00000000000000 ]
      - [  0.70681853895938, -0.01555070878601 ]
  - # 5
    frequency:   13.5849307533
    eigenvector:
    - # atom 1
      - [  0.70710678118655,  0.00000000000000 ]
      - [ -0.00000000000000,  0.00000000000000 ]
      - [  0.00000000000000, -0.00000000000000 ]
    - # atom 2
      - [ -0.70698958377080, -0.00000000000000 ]
      - [  0.00000000000000, -0.00000000000000 ]
      - [ -0.00000000000000,  0.01287355582527 ]
  - # 6
    frequency:   13.5858445557
    eigenvector:
    - # atom 1
      - [ -0.00000000000000,  0.00000000000000 ]
      - [ -0.70710652648232,  0.00060017173638 ]
      - [ -0.00000000000102,  0.00000000000003 ]
    - # atom 2
      - [ -0.00000000000000, -0.00000000000002 ]
      - [  0.70710652648232, -0.00060017173638 ]
      - [  0.00000000000102, -0.00000000000003 ]

- q-position: [    0.0204082,    0.0000000,    0.0204082 ]
  distance:    0.0072329
  band:
  - # 1
    frequency:    0.2391895110
    eigenvector:
    - # atom 1
      - [  0.70702651726292,  0.00000000000000 ]
      - [ -0.00000000000003,  0.00000000000000 ]
      - [ -0.00970068467847, -0.00440461165607 ]
    - # atom 2
      - [  0.70639670077592,  0.00035340796483 ]
      - [ -0.00000000000003,  0.00000000000000 ]
      - [ -0.00969424499595, -0.03015953994450 ]
  - # 2
    frequency:    0.2391895110
    eigenvector:
    - # atom 1
      - [ -0.01065382030409,  0.00000000000000 ]
      - [ -0.00000000000007, -0.00000000000002 ]
      - [ -0.64377294787399, -0.29230615405523 ]
    - # atom 2
      - [ -0.02129582333913,  0.02345344631423 ]
      - [ -0.00000000000007, -0.00000000000002 ]
      - [ -0.64334558696734, -0.29172397826360 ]
  - # 3
    frequency:    0.5279389339
    eigenvector:
    - # atom 1
      - [  0.00000000000003,  0.00000000000000 ]
      - [  0.70694133315052, -0.01529547264297 ]
      - [ -0.00000000000007, -0.00000000000000 ]
    - # atom 2
      - [  0.00000000000003,  0.00000000000000 ]
      - [  0.70694133315052, -0.01529547264297 ]
      - [ -0.00000000000007, -0.00000000000000 ]
  - # 4
    frequency:   13.5794184933
    eigenvector:
    - # atom 1
      - [  0.00000000000000, -0.00000000000000 ]
      - [ -0.00000000000020,  0.00000000000001 ]
      - [ -0.70684161074947,  0.01936329809443 ]
    - # atom 2
      - [ -0.00070542894638, -0.02575111586332 ]
      - [  0.00000000000020, -0.00000000000001 ]
      - [  0.70637238247167, -0.01935044400253 ]
  - # 5
    frequency:   13.5794184933
    eigenvector:
    - # atom 1
      - [  0.70710678118655,  0.00000000000000 ]
      - [ -0.00000000000000,  0.00000000000000 ]
      - [  0.00000000000000, -0.00000000000000 ]
    - # atom 2
      - [ -0.70663737687855, -0.00000000000000 ]
      - [  0.00000000000000, -0.00000000000000 ]
      - [ -0.00000000000000,  0.02576077635097 ]
  - # 6
    frequency:   13.5830681502
    eigenvector:
    - # atom 1
      - [ -0.00000000000000,  0.00000000000000 ]
      - [ -0.70710338237846,  0.00219240254938 ]
      - [  0.00000000000020,  0.00000000000000 ]
    - # atom 2
      - [ -0.00000000000000,  0.00000000000001 ]
      - [  0.70710338237846, -0.00219240254938 ]
      - [ -0.00000000000020, -0.00000000000000 ]

- q-position: [    0.0306122,    0.0000000,    0.0306122 ]
  distance:    0.0108494
  band:
  - # 1
    frequency:    0.3588268900
    eigenvector:
    - # atom 1
      - [ -0.00000000000000,  0.00000000000000 ]
      - [ -0.00000000000001, -0.00000000000002 ]
      - [ -0.24550206362355,  0.66312045418354 ]
    - # atom 2
      - [  0.03626950337482,  0.01342778354814 ]
      - [ -0.00000000000001, -0.00000000000002 ]
      - [ -0.24513457094503,  0.66212782744839 ]
  - # 2
    frequency:    0.3588268900
    eigenvector:
    - # atom 1
      - [ -0.70710678118655,  0.00000000000000 ]
      - [  0.00000000000000,  0.00000000000000 ]
      - [ -0.00000000000000,  0.00000000000000 ]
    - # atom 2
      - [ -0.70604831120393, -0.00000000000000 ]
      - [  0.00000000000000, -0.00000000000000 ]
      - [ -0.00000000000000,  0.03867534416229 ]
  - # 3
    frequency:    0.7915763298
    eigenvector:
    - # atom 1
      - [  0.00000000000000,  0.00000000000000 ]
      - [  0.68275587014622,  0.18396853475767 ]
      - [  0.00000000000001,  0.00000000000002 ]
    - # atom 2
      - [  0.00000000000000, -0.00000000000000 ]
      - [  0.68275587014622,  0.18396853475767 ]
      - [  0.00000000000001,  0.00000000000002 ]
  - # 4
    frequency:   13.5702433913
    eigenvector:
    - # atom 1
      - [ -0.70710678118655,  0.00000000000000 ]
      - [  0.00000000000000,  0.00000000000000 ]
      - [  0.00000000000000,  0.00000000000000 ]
    - # atom 2
      - [  0.70604831120393,  0.00000000000000 ]
      - [ -0.00000000000000,  0.00000000000000 ]
      - [  0.00000000000000, -0.03867534416229 ]
  - # 5
    frequency:   13.5702433913
    eigenvector:
    - # atom 1
      - [  0.00000000000000,  0.00000000000000 ]
      - [ -0.00000000000005, -0.00000000000001 ]
      - [  0.70645350921292,  0.03038814441119 ]
    - # atom 2
      - [ -0.00166208552205,  0.03863961332349 ]
      - [  0.00000000000005,  0.00000000000001 ]
      - [ -0.70539601711482, -0.03034265631866 ]
  - # 6
    frequency:   13.5784342954
    eigenvector:
    - # atom 1
      - [  0.00000000000000,  0.00000000000000 ]
      - [ -0.70393397727636, -0.06691005631355 ]
      - [ -0.00000000000005, -0.00000000000000 ]
    - # atom 2
      - [  0.00000000000000, -0.00000000000000 ]
      - [  0.70393397727636,  0.06691005631355 ]
      - [  0.00000000000005,  0.00000000000000 ]

- q-position: [    0.0408163,    0.0000000,    0.0408163 ]
  distance:    0.0144659
  band:
  - # 1
    frequency:    0.4785137005
    eigenvector:
    - # atom 1
      - [ -0.03391868394748, -0.00000000000000 ]
      - [  0.00000000000000, -0.00000000000000 ]
      - [ -0.66492107487761, -0.23817952695998 ]
    - # atom 2
      - [ -0.05121935288757,  0.04855069358833 ]
      - [  0.00000000000000, -0.00000000000000 ]
      - [ -0.66314618747942, -0.23506710121450 ]
  - # 2
    frequency:    0.4785137005
    eigenvector:
    - # atom 1
      - [ -0.70629280251130,  0.00000000000000 ]
      - [ -0.00000000000000, -0.00000000000000 ]
      - [  0.03193186693762,  0.01143822515109 ]
    - # atom 2
      - [ -0.70357229322462, -0.00233157640202 ]
      - [ -0.00000000000000, -0.00000000000000 ]
      - [  0.03184663055338,  0.06297923531233 ]
  - # 3
    frequency:    1.0548156824
    eigenvector:
    - # atom 1
      - [ -0.00000000000000,  0.00000000000000 ]
      - [  0.70244190018285,  0.08108869753240 ]
      - [  0.00000000000000,  0.00000000000000 ]
    - # atom 2
      - [ -0.00000000000000, -0.00000000000000 ]
      - [  0.70244190018285,  0.08108869753240 ]
      - [  0.00000000000000,  0.00000000000000 ]
  - # 4
    frequency:   13.5574234739
    eigenvector:
    - # atom 1
      - [ -0.69954721266727,  0.00000000000000 ]
      - [  0.00000000000001, -0.00000000000000 ]
      - [  0.10213292018268,  0.01423249326050 ]
    - # atom 2
      - [  0.69664067981020,  0.00745746269809 ]
      - [ -0.00000000000001,  0.00000000000000 ]
      - [ -0.10186029469400, -0.06527350035460 ]
  - # 5
    frequency:   13.5574234739
    eigenvector:
    - # atom 1
      - [  0.10311981986724,  0.00000000000000 ]
      - [  0.00000000000003, -0.00000000000000 ]
      - [  0.69285225408022,  0.09655079889107 ]
    - # atom 2
      - [ -0.10989443170326,  0.05059015086268 ]
      - [ -0.00000000000003,  0.00000000000000 ]
      - [ -0.69100280941523, -0.08876355049554 ]
  - # 6
    frequency:   13.5719332510
    eigenvector:
    - # atom 1
      - [  0.00000000000001,  0.00000000000000 ]
      - [  0.70701134720774,  0.01161700992096 ]
      - [ -0.00000000000003, -0.00000000000001 ]
    - # atom 2
      - [ -0.00000000000001, -0.00000000000000 ]
      - [ -0.70701134720773, -0.01161700992096 ]
      - [  0.00000000000003,  0.00000000000001 ]

- q-position: [    0.0510204,    0.0000000,    0.0510204 ]
  distance:    0.0180824
  band:
  - # 1
    frequency:    0.5982635590
    eigenvector:
    - # atom 1
      - [  0.00000000000000,  0.00000000000000 ]
      - [ -0.00000000000001,  0.00000000000000 ]
      - [ -0.29179941690902,  0.64409090995880 ]
    - # atom 2
      - [  0.05888073345378,  0.02667537054682 ]
      - [ -0.00000000000001,  0.00000000000000 ]
      - [ -0.29057757021944,  0.64139391914759 ]
  - # 2
    frequency:    0.5982635590
    eigenvector:
    - # atom 1
      - [ -0.70710678118655,  0.00000000000000 ]
      - [  0.00000000000000,  0.00000000000000 ]
      - [ -0.00000000000000,  0.00000000000000 ]
    - # atom 2
      - [ -0.70414592509943, -0.00000000000000 ]
      - [  0.00000000000000, -0.00000000000000 ]
      - [ -0.00000000000000,  0.06464144309857 ]
  - # 3
    frequency:    1.3175250461
    eigenvector:
    - # atom 1
      - [  0.00000000000000,  0.00000000000000 ]
      - [  0.62658122074684, -0.32771324936200 ]
      - [ -0.00000000000000,  0.00000000000001 ]
    - # atom 2
      - [  0.00000000000000,  0.00000000000000 ]
      - [  0.62658122074684, -0.32771324936200 ]
      - [ -0.00000000000000,  0.00000000000001 ]
  - # 4
    frequency:   13.5409840391
    eigenvector:
    - # atom 1
      - [ -0.70710678118655,  0.00000000000000 ]
      - [  0.00000000000000,  0.00000000000000 ]
      - [  0.00000000000000,  0.00000000000000 ]
    - # atom 2
      - [  0.70414592509943,  0.00000000000000 ]
      - [ -0.00000000000000,  0.00000000000000 ]
      - [  0.00000000000000, -0.06464144309857 ]
  - # 5
    frequency:   13.5409840391
    eigenvector:
    - # atom 1
      - [  0.00000000000000,  0.00000000000000 ]
      - [ -0.00000000000000,  0.00000000000000 ]
      - [ -0.70483905178968, -0.05658543162531 ]
    - # atom 2
      - [  0.00517285939823, -0.06443413452132 ]
      - [  0.00000000000000, -0.00000000000000 ]
      - [  0.70188769132694,  0.05634849241877 ]
  - # 6
    frequency:   13.5635514364
    eigenvector:
    - # atom 1
      - [  0.00000000000000,  0.00000000000000 ]
      - [  0.70649506305282, -0.02940622182447 ]
      - [ -0.00000000000000, -0.00000000000000 ]
    - # atom 2
      - [  0.00000000000000, -0.00000000000000 ]
      - [ -0.70649506305282,  0.02940622182447 ]
      - [  0.00000000000000,  0.00000000000000 ]

- q-position: [    0.0612245,    0.0000000,    0.0612245 ]
  distance:    0.0216988
  band:
  - # 1
    frequency:    0.7180876306
    eigenvector:
    - # atom 1
      - [  0.00000000000000,  0.00000000000000 ]
      - [ -0.00000000000000,  0.00000000000001 ]
      - [ -0.45088866886552,  0.54470121010392 ]
    - # atom 2
      - [  0.05987001213383,  0.04955874812695 ]
      - [ -0.00000000000000,  0.00000000000001 ]
      - [ -0.44815680536550,  0.54140095117738 ]
  - # 2
    frequency:    0.7180876306
    eigenvector:
    - # atom 1
      - [ -0.70710678118655,  0.00000000000000 ]
      - [  0.00000000000000,  0.00000000000000 ]
      - [ -0.00000000000000,  0.00000000000000 ]
    - # atom 2
      - [ -0.70282253245836,  0.00000000000000 ]
      - [  0.00000000000000, -0.00000000000000 ]
      - [ -0.00000000000000,  0.07772057558211 ]
  - # 3
    frequency:    1.5795731049
    eigenvector:
    - # atom 1
      - [  0.00000000000000,  0.00000000000000 ]
      - [ -0.07585083717506, -0.70302677793939 ]
      - [ -0.00000000000000,  0.00000000000001 ]
    - # atom 2
      - [  0.00000000000000,  0.00000000000000 ]
      - [ -0.07585083717506, -0.70302677793939 ]
      - [ -0.00000000000000,  0.00000000000001 ]
  - # 4
    frequency:   13.5209577165
    eigenvector:
    - # atom 1
      - [  0.00000000000000,  0.00000000000000 ]
      - [  0.00000000000000,  0.00000000000000 ]
      - [ -0.70363988124717,  0.06993509504150 ]
    - # atom 2
      - [ -0.00768681051382, -0.07733951650314 ]
      - [ -0.00000000000000, -0.00000000000000 ]
      - [  0.69937663792022, -0.06951136930452 ]
  - # 5
    frequency:   13.5209577165
    eigenvector:
    - # atom 1
      - [ -0.70710678118655,  0.00000000000000 ]
      - [  0.00000000000000,  0.00000000000000 ]
      - [  0.00000000000000,  0.00000000000000 ]
    - # atom 2
      - [  0.70282253245836,  0.00000000000000 ]
      - [ -0.00000000000000,  0.00000000000000 ]
      - [  0.00000000000000, -0.07772057558211 ]
  - # 6
    frequency:   13.5532714862
    eigenvector:
    - # atom 1
      - [  0.00000000000000,  0.00000000000000 ]
      - [ -0.03561298188610, -0.70620939920195 ]
      - [ -0.00000000000000, -0.00000000000000 ]
    - # atom 2
      - [  0.00000000000000,  0.00000000000000 ]
      - [  0.03561298188610,  0.70620939920195 ]
      - [  0.00000000000000,  0.00000000000000 ]

- q-position: [    0.0714286,    0.0000000,    0.0714286 ]
  distance:    0.0253153
  band:
  - # 1
    frequency:    0.8379940168
    eigenvector:
    - # atom 1
      - [ -0.70710678118655,  0.00000000000000 ]
      - [  0.00000000000000,  0.00000000000000 ]
      - [ -0.00000000000000,  0.00000000000000 ]
    - # atom 2
      - [ -0.70124204865567, -0.00000000000000 ]
      - [  0.00000000000000, -0.00000000000000 ]
      - [ -0.00000000000000,  0.09088228208623 ]
  - # 2
    frequency:    0.8379940168
    eigenvector:
    - # atom 1
      - [  0.00000000000000,  0.00000000000000 ]
      - [ -0.00000000000000, -0.00000000000000 ]
      - [  0.45123373626950, -0.54441538851531 ]
    - # atom 2
      - [ -0.06997205263413, -0.05799569852470 ]
      - [ -0.00000000000000, -0.00000000000000 ]
      - [  0.44749121075208, -0.53990001583852 ]
  - # 3
    frequency:    1.8408293279
    eigenvector:
    - # atom 1
      - [ -0.00000000000000,  0.00000000000000 ]
      - [ -0.70165840803698,  0.08760980784709 ]
      - [  0.00000000000000,  0.00000000000000 ]
    - # atom 2
      - [  0.00000000000000, -0.00000000000000 ]
      - [ -0.70165840803698,  0.08760980784709 ]
      - [  0.00000000000000,  0.00000000000000 ]
  - # 4
    frequency:   13.4973845482
    eigenvector:
    - # atom 1
      - [  0.00000000000000,  0.00000000000000 ]
      - [ -0.00000000000003,  0.00000000000000 ]
      - [ -0.70486238706146, -0.05629400772749 ]
    - # atom 2
      - [  0.00723529744895, -0.09059381694148 ]
      - [  0.00000000000003, -0.00000000000000 ]
      - [  0.69901626950018,  0.05582710611207 ]
  - # 5
    frequency:   13.4973845482
    eigenvector:
    - # atom 1
      - [ -0.70710678118655,  0.00000000000000 ]
      - [  0.00000000000000,  0.00000000000000 ]
      - [  0.00000000000000,  0.00000000000000 ]
    - # atom 2
      - [  0.70124204865567,  0.00000000000000 ]
      - [ -0.00000000000000,  0.00000000000000 ]
      - [  0.00000000000000, -0.09088228208623 ]
  - # 6
    frequency:   13.5410723211
    eigenvector:
    - # atom 1
      - [  0.00000000000000,  0.00000000000000 ]
      - [  0.70703624601501,  0.00998733302754 ]
      - [ -0.00000000000003, -0.00000000000000 ]
    - # atom 2
      - [  0.00000000000000, -0.00000000000000 ]
      - [ -0.70703624601501, -0.00998733302754 ]
      - [  0.00000000000003,  0.00000000000000 ]

- q-position: [    0.0816327,    0.0000000,    0.0816327 ]
  distance:    0.0289318
  band:
  - # 1
    frequency:    0.9579871429
    eigenvector:
    - # atom 1
      - [ -0.02863239337907,  0.00000000000000 ]
      - [  0.00000000000000, -0.00000000000000 ]
      - [  0.57841125580907,  0.40573464875797 ]
    - # atom 2
      - [  0.03143520851252, -0.08518666319691 ]
      - [  0.00000000000000, -0.00000000000000 ]
      - [  0.57210384831777,  0.40552712217452 ]
  - # 2
    frequency:    0.9579871429
    eigenvector:
    - # atom 1
      - [  0.70652684736632,  0.00000000000000 ]
      - [ -0.00000000000000,  0.00000000000000 ]
      - [  0.02344043778795,  0.01644262226420 ]
    - # atom 2
      - [  0.70124399615223, -0.00345223689715 ]
      - [ -0.00000000000000,  0.00000000000000 ]
      - [  0.02318482659191, -0.08779182044333 ]
  - # 3
    frequency:    2.1011641244
    eigenvector:
    - # atom 1
      - [  0.00000000000000,  0.00000000000000 ]
      - [  0.70574431289016, -0.04387442105823 ]
      - [ -0.00000000000000, -0.00000000000000 ]
    - # atom 2
      - [  0.00000000000000,  0.00000000000000 ]
      - [  0.70574431289016, -0.04387442105823 ]
      - [ -0.00000000000000, -0.00000000000000 ]
  - # 4
    frequency:   13.4703120874
    eigenvector:
    - # atom 1
      - [  0.70710678118655,  0.00000000000000 ]
      - [ -0.00000000000000,  0.00000000000000 ]
      - [  0.00000000000000,  0.00000000000000 ]
    - # atom 2
      - [ -0.69939598620458, -0.00000000000000 ]
      - [  0.00000000000000, -0.00000000000000 ]
      - [ -0.00000000000000,  0.10414055156817 ]
  - # 5
    frequency:   13.4703120874
    eigenvector:
    - # atom 1
      - [  0.00000000000000, -0.00000000000000 ]
      - [ -0.00000000000002, -0.00000000000000 ]
      - [ -0.69815138222313, -0.11218131528884 ]
    - # atom 2
      - [  0.01652172537537, -0.10282162745037 ]
      - [  0.00000000000001,  0.00000000000000 ]
      - [  0.69053824327732,  0.11095801048395 ]
  - # 6
    frequency:   13.5269292337
    eigenvector:
    - # atom 1
      - [ -0.00000000000000,  0.00000000000000 ]
      - [ -0.70701481510046,  0.01140400054663 ]
      - [  0.00000000000002, -0.00000000000000 ]
    - # atom 2
      - [  0.00000000000000,  0.00000000000000 ]
      - [  0.70701481510046, -0.01140400054663 ]
      - [ -0.00000000000002,  0.00000000000000 ]

- q-position: [    0.0918367,    0.0000000,    0.0918367 ]
  distance:    0.0325483
  band:
  - # 1
    frequency:    1.0780671452
    eigenvector:
    - # atom 1
      - [ -0.70689115620510,  0.00000000000000 ]
      - [  0.00000000000000, -0.00000000000000 ]
      - [  0.00856888731593, -0.01521405433114 ]
    - # atom 2
      - [ -0.69959005384885, -0.00142400738962 ]
      - [  0.00000000000000, -0.00000000000000 ]
      - [  0.00844973566376,  0.10247112142416 ]
  - # 2
    frequency:    1.0780671452
    eigenvector:
    - # atom 1
      - [ -0.01746119351660,  0.00000000000000 ]
      - [ -0.00000000000000, -0.00000000000000 ]
      - [ -0.34689900529395,  0.61591897750195 ]
    - # atom 2
      - [  0.08513715712243,  0.05764887887742 ]
      - [ -0.00000000000000, -0.00000000000000 ]
      - [ -0.34207532304758,  0.61025629419382 ]
  - # 3
    frequency:    2.3604489971
    eigenvector:
    - # atom 1
      - [  0.00000000000000,  0.00000000000000 ]
      - [  0.70594671177437, -0.04048753061068 ]
      - [  0.00000000000000,  0.00000000000000 ]
    - # atom 2
      - [  0.00000000000000,  0.00000000000000 ]
      - [  0.70594671177437, -0.04048753061068 ]
      - [ -0.00000000000000,  0.00000000000000 ]
  - # 4
    frequency:   13.4397955195
    eigenvector:
    - # atom 1
      - [  0.00000000000000, -0.00000000000000 ]
      - [ -0.00000000000002, -0.00000000000000 ]
      - [ -0.66075090878732, -0.25180992144220 ]
    - # atom 2
      - [  0.04184664539194, -0.10980587585296 ]
      - [  0.00000000000002,  0.00000000000000 ]
      - [  0.65156306915865,  0.24830846704486 ]
  - # 5
    frequency:   13.4397955195
    eigenvector:
    - # atom 1
      - [  0.70710678118655,  0.00000000000000 ]
      - [ -0.00000000000000,  0.00000000000000 ]
      - [  0.00000000000000,  0.00000000000000 ]
    - # atom 2
      - [ -0.69727435625986,  0.00000000000000 ]
      - [  0.00000000000000, -0.00000000000000 ]
      - [ -0.00000000000000,  0.11750945537443 ]
  - # 6
    frequency:   13.5108139885
    eigenvector:
    - # atom 1
      - [ -0.00000000000000,  0.00000000000000 ]
      - [ -0.70707757199542,  0.00642706628730 ]
      - [  0.00000000000002,  0.00000000000001 ]
    - # atom 2
      - [ -0.00000000000000,  0.00000000000000 ]
      - [  0.70707757199542, -0.00642706628730 ]
      - [ -0.00000000000001, -0.00000000000001 ]

- q-position: [    0.1020408,    0.0000000,    0.1020408 ]
  distance:    0.0361647
  band:
  - # 1
    frequency:    1.1982292559
    eigenvector:
    - # atom 1
      - [ -0.02207211520937, -0.00000000000000 ]
      - [  0.00000000000000,  0.00000000000000 ]
      - [  0.25402185098236, -0.65953447290773 ]
    - # atom 2
      - [ -0.14387960059329, -0.04706171889443 ]
      - [  0.00000000000000,  0.00000000000000 ]
      - [  0.24962430849420, -0.64402760791492 ]
  - # 2
    frequency:    1.1982292559
    eigenvector:
    - # atom 1
      - [ -0.70676221017410,  0.00000000000000 ]
      - [  0.00000000000000, -0.00000000000000 ]
      - [ -0.00793307774506,  0.02059719755953 ]
    - # atom 2
      - [ -0.69071100688565,  0.00146973291220 ]
      - [  0.00000000000000, -0.00000000000000 ]
      - [ -0.00779574292008,  0.15117993003209 ]
  - # 3
    frequency:    2.6185566949
    eigenvector:
    - # atom 1
      - [  0.00000000000000,  0.00000000000000 ]
      - [  0.69831860312890, -0.11113563120845 ]
      - [  0.00000000000000,  0.00000000000000 ]
    - # atom 2
      - [  0.00000000000000, -0.00000000000000 ]
      - [  0.69831860312890, -0.11113563120845 ]
      - [  0.00000000000000,  0.00000000000000 ]
  - # 4
    frequency:   13.4058978044
    eigenvector:
    - # atom 1
      - [  0.70710678118655,  0.00000000000000 ]
      - [ -0.00000000000000,  0.00000000000000 ]
      - [  0.00000000000000,  0.00000000000000 ]
    - # atom 2
      - [ -0.69486558184913,  0.00000000000000 ]
      - [  0.00000000000000, -0.00000000000000 ]
      - [ -0.00000000000000,  0.13100314180001 ]
  - # 5
    frequency:   13.4058978044
    eigenvector:
    - # atom 1
      - [  0.00000000000000,  0.00000000000000 ]
      - [ -0.00000000000001,  0.00000000000000 ]
      - [ -0.67399628981248, -0.21384340373043 ]
    - # atom 2
      - [  0.03961800181705, -0.12486887960376 ]
      - [  0.00000000000001, -0.00000000000000 ]
      - [  0.66232828837933,  0.21014141726713 ]
  - # 6
    frequency:   13.4926949366
    eigenvector:
    - # atom 1
      - [  0.00000000000000,  0.00000000000000 ]
      - [  0.70707922614983,  0.00624243120618 ]
      - [ -0.00000000000001, -0.00000000000001 ]
    - # atom 2
      - [  0.00000000000000, -0.00000000000000 ]
      - [ -0.70707922614983, -0.00624243120618 ]
      - [  0.00000000000001,  0.00000000000001 ]

- q-position: [    0.1122449,    0.0000000,    0.1122449 ]
  distance:    0.0397812
  band:
  - # 1
    frequency:    1.3184631867
    eigenvector:
    - # atom 1
      - [  0.70710678118655,  0.00000000000000 ]
      - [  0.00000000000000,  0.00000000000000 ]
      - [  0.00000000000000,  0.00000000000000 ]
    - # atom 2
      - [  0.69215639769117,  0.00000000000000 ]
      - [ -0.00000000000000,  0.00000000000000 ]
      - [  0.00000000000000, -0.14463582244792 ]
  - # 2
    frequency:    1.3184631867
    eigenvector:
    - # atom 1
      - [  0.00000000000000,  0.00000000000000 ]
      - [ -0.00000000000000,  0.00000000000000 ]
      - [ -0.69300413724103, -0.14051784857024 ]
    - # atom 2
      - [ -0.02874235566298,  0.14175118386147 ]
      - [ -0.00000000000000,  0.00000000000000 ]
      - [ -0.67835192644162, -0.13754687476549 ]
  - # 3
    frequency:    2.8753613631
    eigenvector:
    - # atom 1
      - [  0.00000000000000,  0.00000000000000 ]
      - [  0.62432784270931, -0.33198606118020 ]
      - [ -0.00000000000000, -0.00000000000000 ]
    - # atom 2
      - [  0.00000000000000,  0.00000000000000 ]
      - [  0.62432784270931, -0.33198606118020 ]
      - [ -0.00000000000000,  0.00000000000000 ]
  - # 4
    frequency:   13.3686898429
    eigenvector:
    - # atom 1
      - [  0.00000000000000,  0.00000000000000 ]
      - [ -0.00000000000001,  0.00000000000000 ]
      - [  0.61391314694220,  0.35087126985766 ]
    - # atom 2
      - [ -0.07176929431231,  0.12557344276995 ]
      - [  0.00000000000001, -0.00000000000000 ]
      - [ -0.60093315972692, -0.34345278628283 ]
  - # 5
    frequency:   13.3686898429
    eigenvector:
    - # atom 1
      - [  0.70710678118655,  0.00000000000000 ]
      - [  0.00000000000000,  0.00000000000000 ]
      - [ -0.00000000000000,  0.00000000000000 ]
    - # atom 2
      - [ -0.69215639769117, -0.00000000000000 ]
      - [  0.00000000000000, -0.00000000000000 ]
      - [ -0.00000000000000,  0.14463582244792 ]
  - # 6
    frequency:   13.4725371431
    eigenvector:
    - # atom 1
      - [  0.00000000000000,  0.00000000000000 ]
      - [  0.70114489505009, -0.09162879539317 ]
      - [  0.00000000000001,  0.00000000000001 ]
    - # atom 2
      - [ -0.00000000000000,  0.00000000000000 ]
      - [ -0.70114489505009,  0.09162879539317 ]
      - [ -0.00000000000001, -0.00000000000000 ]

- q-position: [    0.1224490,    0.0000000,    0.1224490 ]
  distance:    0.0433977
  band:
  - # 1
    frequency:    1.4387525080
    eigenvector:
    - # atom 1
      - [  0.18316131107991, -0.00000000000000 ]
      - [  0.00000000000000,  0.00000000000000 ]
      - [ -0.19250386322653,  0.65528176898671 ]
    - # atom 2
      - [  0.32531600882424,  0.04312898619100 ]
      - [  0.00000000000000,  0.00000000000000 ]
      - [ -0.18761030863808,  0.59758828389246 ]
  - # 2
    frequency:    1.4387525080