nqpoint: 500    
npath: 10     
segment_nqpoint:
- 50
- 50
- 50
- 50
- 50
- 50
- 50
- 50
- 50
- 50
labels:
- [ 'G', 'X' ]
- [ 'X', 'W' ]
- [ 'W', 'K' ]
- [ 'K', 'G' ]
- [ 'G', 'L' ]
- [ 'L', 'U' ]
- [ 'U', 'W' ]
- [ 'W', 'L' ]
- [ 'L', 'K|U' ]
- [ 'K|U', 'X' ]
reciprocal_lattice:
- [  -0.17720724,   0.17720724,   0.17720724 ] # a*
- [   0.17720724,  -0.17720724,   0.17720724 ] # b*
- [   0.17720724,   0.17720724,  -0.17720724 ] # c*
natom: 2      
lattice:
- [     0.000000000000000,     2.821555113426400,     2.821555113426400 ] # a
- [     2.821555113426400,     0.000000000000000,     2.821555113426400 ] # b
- [     2.821555113426400,     2.821555113426400,     0.000000000000000 ] # c
points:
- symbol: Si # 1
  coordinates: [  0.000000000000000,  0.000000000000000,  0.000000000000000 ]
  mass: 28.085000
  magnetic_moment: 0.00000000
- symbol: Si # 2
  coordinates: [  0.250000000000000,  0.250000000000000,  0.250000000000000 ]
  mass: 28.085000
  magnetic_moment: 0.00000000

phonon:
- q-position: [    0.0000000,    0.0000000,    0.0000000 ]
  distance:    0.0000000
  band:
  - # 1
    frequency:    0.0000003637
    eigenvector:
    - # atom 1
      - [  0.00000000000000,  0.00000000000000 ]
      - [ -0.69868524207429,  0.00000000000000 ]
      - [  0.10880685873411,  0.00000000000000 ]
    - # atom 2
      - [ -0.00000000000000,  0.00000000000000 ]
      - [ -0.69868524207429,  0.00000000000000 ]
      - [  0.10880685873411,  0.00000000000000 ]
  - # 2
    frequency:    0.0000004032
    eigenvector:
    - # atom 1
      - [  0.00000000000000,  0.00000000000000 ]
      - [  0.10880685873411,  0.00000000000000 ]
      - [  0.69868524207429,  0.00000000000000 ]
    - # atom 2
      - [ -0.00000000000000,  0.00000000000000 ]
      - [  0.10880685873411,  0.00000000000000 ]
      - [  0.69868524207429,  0.00000000000000 ]
  - # 3
    frequency:    0.0000004200
    eigenvector:
    - # atom 1
      - [  0.70710678118655,  0.00000000000000 ]
      - [  0.00000000000000,  0.00000000000000 ]
      - [  0.00000000000000,  0.00000000000000 ]
    - # atom 2
      - [  0.70710678118655,  0.00000000000000 ]
      - [ -0.00000000000000,  0.00000000000000 ]
      - [  0.00000000000000,  0.00000000000000 ]
  - # 4
    frequency:   13.5867706235
    eigenvector:
    - # atom 1
      - [  0.00000000000000,  0.00000000000000 ]
      - [ -0.10578369211025,  0.00000000000000 ]
      - [  0.69914934776736,  0.00000000000000 ]
    - # atom 2
      - [  0.00000000000000,  0.00000000000000 ]
      - [  0.10578369211025,  0.00000000000000 ]
      - [ -0.69914934776736,  0.00000000000000 ]
  - # 5
    frequency:   13.5867706235
    eigenvector:
    - # atom 1
      - [  0.00000000000000,  0.00000000000000 ]
      - [ -0.69914934776736,  0.00000000000000 ]
      - [ -0.10578369211025,  0.00000000000000 ]
    - # atom 2
      - [  0.00000000000000,  0.00000000000000 ]
      - [  0.69914934776736,  0.00000000000000 ]
      - [  0.10578369211025,  0.00000000000000 ]
  - # 6
    frequency:   13.5867706235
    eigenvector:
    - # atom 1
      - [  0.70710678118655,  0.00000000000000 ]
      - [  0.00000000000000,  0.00000000000000 ]
      - [ -0.00000000000000,  0.00000000000000 ]
    - # atom 2
      - [ -0.70710678118655,  0.00000000000000 ]
      - [  0.00000000000000,  0.00000000000000 ]
      - [ -0.00000000000000,  0.00000000000000 ]

- q-position: [    0.0102041,    0.0000000,    0.0102041 ]
  distance:    0.0036165
  band:
  - # 1
    frequency:    0.1195859479
    eigenvector:
    - # atom 1
      - [ -0.00000000000000,  0.00000000000000 ]
      - [ -0.00000000000014, -0.00000000000001 ]
      - [ -0.69593875924830,  0.12517684840231 ]
    - # atom 2
      - [  0.00227896426022,  0.01267023079646 ]
      - [ -0.00000000000014, -0.00000000000001 ]
      - [ -0.69582341285389,  0.12515610132085 ]
  - # 2
    frequency:    0.1195859479
    eigenvector:
    - # atom 1
      - [ -0.70710678118655,  0.00000000000000 ]
      - [  0.00000000000000,  0.00000000000000 ]
      - [ -0.00000000000000,  0.00000000000000 ]
    - # atom 2
      - [ -0.70698958378003, -0.00000000000000 ]
      - [  0.00000000000000,  0.00000000000000 ]
      - [ -0.00000000000000,  0.01287355531836 ]
  - # 3
    frequency:    0.2640359482
    eigenvector:
    - # atom 1
      - [  0.00000000000000,  0.00000000000000 ]
      - [  0.70497917339734, -0.05481208877618 ]
      - [ -0.00000000000013,  0.00000000000004 ]
    - # atom 2
      - [  0.00000000000000,  0.00000000000000 ]
      - [  0.70497917339734, -0.05481208877618 ]
      - [ -0.00000000000013,  0.00000000000004 ]
  - # 4
    frequency:   13.5849320028
    eigenvector:
    - # atom 1
      - [ -0.70710678118655,  0.00000000000000 ]
      - [  0.00000000000000,  0.00000000000000 ]
      - [  0.00000000000000,  0.00000000000000 ]
    - # atom 2
      - [  0.70698958378003,  0.00000000000000 ]
      - [ -0.00000000000000, -0.00000000000000 ]
      - [  0.00000000000000, -0.01287355531836 ]
  - # 5
    frequency:   13.5849320028
    eigenvector:
    - # atom 1
      - [  0.00000000000000,  0.00000000000000 ]
      - [ -0.00000000000027, -0.00000000000001 ]
      - [  0.70675744344985, -0.02222422390634 ]
    - # atom 2
      - [  0.00040461325429,  0.01286719529072 ]
      - [  0.00000000000027,  0.00000000000001 ]
      - [ -0.70664030394332,  0.02222054041543 ]
  - # 6
    frequency:   13.5858458071
    eigenvector:
    - # atom 1
      - [  0.00000000000000,  0.00000000000000 ]
      - [ -0.69367264648495,  0.13717966146106 ]
      - [ -0.00000000000026,  0.00000000000007 ]
    - # atom 2
      - [ -0.00000000000000, -0.00000000000000 ]
      - [  0.69367264648495, -0.13717966146106 ]
      - [  0.00000000000026, -0.00000000000007 ]

- q-position: [    0.0204082,    0.0000000,    0.0204082 ]
  distance:    0.0072329
  band:
  - # 1
    frequency:    0.2391891907
    eigenvector:
    - # atom 1
      - [ -0.00491513696114,  0.00000000000000 ]
      - [ -0.00000000000008, -0.00000000000001 ]
      - [  0.62145701639542,  0.33729366759778 ]
    - # atom 2
      - [  0.00737615172582, -0.02264044838389 ]
      - [ -0.00000000000008, -0.00000000000001 ]
      - [  0.62104446968319,  0.33724882380614 ]
  - # 2
    frequency:    0.2391891907
    eigenvector:
    - # atom 1
      - [  0.70708969829057,  0.00000000000000 ]
      - [ -0.00000000000003, -0.00000000000000 ]
      - [  0.00431988524006,  0.00234460292149 ]
    - # atom 2
      - [  0.70670572214651, -0.00015737876671 ]
      - [ -0.00000000000003, -0.00000000000000 ]
      - [  0.00431701753657, -0.02341710650134 ]
  - # 3
    frequency:    0.5279390048
    eigenvector:
    - # atom 1
      - [  0.00000000000003,  0.00000000000000 ]
      - [  0.70706430395408,  0.00775048862519 ]
      - [  0.00000000000008,  0.00000000000003 ]
    - # atom 2
      - [  0.00000000000003, -0.00000000000000 ]
      - [  0.70706430395408,  0.00775048862519 ]
      - [  0.00000000000008,  0.00000000000003 ]
  - # 4
    frequency:   13.5794197375
    eigenvector:
    - # atom 1
      - [  0.00000000000000, -0.00000000000000 ]
      - [ -0.00000000000068, -0.00000000000002 ]
      - [ -0.70625533432473,  0.03469009567382 ]
    - # atom 2
      - [ -0.00126380312687, -0.02572975607448 ]
      - [  0.00000000000068,  0.00000000000002 ]
      - [  0.70578649527636, -0.03466706707403 ]
  - # 5
    frequency:   13.5794197375
    eigenvector:
    - # atom 1
      - [  0.70710678118655,  0.00000000000000 ]
      - [ -0.00000000000000, -0.00000000000000 ]
      - [  0.00000000000000, -0.00000000000000 ]
    - # atom 2
      - [ -0.70663737691549, -0.00000000000000 ]
      - [  0.00000000000000,  0.00000000000000 ]
      - [ -0.00000000000000,  0.02576077533763 ]
  - # 6
    frequency:   13.5830694020
    eigenvector:
    - # atom 1
      - [ -0.00000000000000,  0.00000000000000 ]
      - [ -0.70683273726004, -0.01968455073082 ]
      - [  0.00000000000068, -0.00000000000003 ]
    - # atom 2
      - [  0.00000000000000,  0.00000000000002 ]
      - [  0.70683273726004,  0.01968455073082 ]
      - [ -0.00000000000068,  0.00000000000003 ]

- q-position: [    0.0306122,    0.0000000,    0.0306122 ]
  distance:    0.0108494
  band:
  - # 1
    frequency:    0.3588264105
    eigenvector:
    - # atom 1
      - [ -0.00000000000000,  0.00000000000000 ]
      - [  0.00000000000001,  0.00000000000000 ]
      - [ -0.69662920842161, -0.12127549618070 ]
    - # atom 2
      - [ -0.00663318680267,  0.03810226976744 ]
      - [  0.00000000000001,  0.00000000000000 ]
      - [ -0.69558642242693, -0.12109395858884 ]
  - # 2
    frequency:    0.3588264105
    eigenvector:
    - # atom 1
      - [  0.70710678118655,  0.00000000000000 ]
      - [  0.00000000000000,  0.00000000000000 ]
      - [  0.00000000000000,  0.00000000000000 ]
    - # atom 2
      - [  0.70604831128713,  0.00000000000000 ]
      - [ -0.00000000000000,  0.00000000000000 ]
      - [  0.00000000000000, -0.03867534264348 ]
  - # 3
    frequency:    0.7915764361
    eigenvector:
    - # atom 1
      - [  0.00000000000000,  0.00000000000000 ]
      - [  0.70356294392215, -0.07070490746474 ]
      - [  0.00000000000001, -0.00000000000000 ]
    - # atom 2
      - [ -0.00000000000000, -0.00000000000000 ]
      - [  0.70356294392215, -0.07070490746474 ]
      - [  0.00000000000001, -0.00000000000000 ]
  - # 4
    frequency:   13.5702446266
    eigenvector:
    - # atom 1
      - [  0.70710678118655,  0.00000000000000 ]
      - [  0.00000000000000,  0.00000000000000 ]
      - [ -0.00000000000000,  0.00000000000000 ]
    - # atom 2
      - [ -0.70604831128713, -0.00000000000000 ]
      - [  0.00000000000000,  0.00000000000000 ]
      - [ -0.00000000000000,  0.03867534264348 ]
  - # 5
    frequency:   13.5702446266
    eigenvector:
    - # atom 1
      - [  0.00000000000000,  0.00000000000000 ]
      - [ -0.00000000000001,  0.00000000000000 ]
      - [  0.70244876346172, -0.08102922134082 ]
    - # atom 2
      - [  0.00443190898867,  0.03842057145991 ]
      - [  0.00000000000001, -0.00000000000000 ]
      - [ -0.70139726616062,  0.08090792849787 ]
  - # 6
    frequency:   13.5784355478
    eigenvector:
    - # atom 1
      - [  0.00000000000000,  0.00000000000000 ]
      - [ -0.69132712054648,  0.14854902354750 ]
      - [ -0.00000000000001,  0.00000000000000 ]
    - # atom 2
      - [  0.00000000000000, -0.00000000000000 ]
      - [  0.69132712054648, -0.14854902354750 ]
      - [  0.00000000000001, -0.00000000000000 ]

- q-position: [    0.0408163,    0.0000000,    0.0408163 ]
  distance:    0.0144659
  band:
  - # 1
    frequency:    0.4785130630
    eigenvector:
    - # atom 1
      - [ -0.69364468965589, -0.00000000000000 ]
      - [ -0.00000000000001,  0.00000000000000 ]
      - [  0.11102296678628, -0.08081426457107 ]
    - # atom 2
      - [ -0.69769396320559, -0.00810658893842 ]
      - [ -0.00000000000001,  0.00000000000000 ]
      - [  0.11072661093798, -0.02995053509462 ]
  - # 2
    frequency:    0.4785130630
    eigenvector:
    - # atom 1
      - [ -0.13732095438130,  0.00000000000000 ]
      - [  0.00000000000001, -0.00000000000001 ]
      - [ -0.56080655489265,  0.40821435971466 ]
    - # atom 2
      - [ -0.10714772105976,  0.04094853836177 ]
      - [  0.00000000000001, -0.00000000000001 ]
      - [ -0.55930958262540,  0.41715149989079 ]
  - # 3
    frequency:    1.0548158240
    eigenvector:
    - # atom 1
      - [ -0.00000000000001,  0.00000000000000 ]
      - [  0.70709133204803, -0.00467419966929 ]
      - [  0.00000000000001, -0.00000000000000 ]
    - # atom 2
      - [ -0.00000000000001, -0.00000000000000 ]
      - [  0.70709133204803, -0.00467419966929 ]
      - [  0.00000000000001, -0.00000000000000 ]
  - # 4
    frequency:   13.5574246970
    eigenvector:
    - # atom 1
      - [  0.00000000000000, -0.00000000000000 ]
      - [ -0.00000000000003,  0.00000000000000 ]
      - [ -0.69970188554305, -0.10206503498995 ]
    - # atom 2
      - [  0.00745250561752, -0.05109028996184 ]
      - [  0.00000000000003, -0.00000000000000 ]
      - [  0.69783415716352,  0.10179259072998 ]
  - # 5
    frequency:   13.5574246970
    eigenvector:
    - # atom 1
      - [  0.70710678118655,  0.00000000000000 ]
      - [  0.00000000000000, -0.00000000000000 ]
      - [  0.00000000000000,  0.00000000000000 ]
    - # atom 2
      - [ -0.70521928676947, -0.00000000000000 ]
      - [  0.00000000000000,  0.00000000000000 ]
      - [ -0.00000000000000,  0.05163097489264 ]
  - # 6
    frequency:   13.5719345044
    eigenvector:
    - # atom 1
      - [ -0.00000000000000,  0.00000000000000 ]
      - [  0.70678125068393, -0.02145375681938 ]
      - [ -0.00000000000003, -0.00000000000001 ]
    - # atom 2
      - [  0.00000000000000, -0.00000000000000 ]
      - [ -0.70678125068393,  0.02145375681938 ]
      - [  0.00000000000003,  0.00000000000001 ]

- q-position: [    0.0510204,    0.0000000,    0.0510204 ]
  distance:    0.0180824
  band:
  - # 1
    frequency:    0.5982627650
    eigenvector:
    - # atom 1
      - [  0.00000000000000,  0.00000000000000 ]
      - [ -0.00000000000000,  0.00000000000000 ]
      - [ -0.70103112887235,  0.09249516934391 ]
    - # atom 2
      - [  0.00845561257730,  0.06408602386937 ]
      - [ -0.00000000000000,  0.00000000000000 ]
      - [ -0.69809571348967,  0.09210786593935 ]
  - # 2
    frequency:    0.5982627650
    eigenvector:
    - # atom 1
      - [ -0.70710678118655,  0.00000000000000 ]
      - [  0.00000000000000,  0.00000000000000 ]
      - [ -0.00000000000000,  0.00000000000000 ]
    - # atom 2
      - [ -0.70414592533122, -0.00000000000000 ]
      - [  0.00000000000000,  0.00000000000000 ]
      - [ -0.00000000000000,  0.06464144057370 ]
  - # 3
    frequency:    1.3175252229
    eigenvector:
    - # atom 1
      - [  0.00000000000000,  0.00000000000000 ]
      - [  0.70708797329796,  0.00515732657356 ]
      - [ -0.00000000000000, -0.00000000000000 ]
    - # atom 2
      - [  0.00000000000000,  0.00000000000000 ]
      - [  0.70708797329796,  0.00515732657356 ]
      - [ -0.00000000000000, -0.00000000000000 ]
  - # 4
    frequency:   13.5409852463
    eigenvector:
    - # atom 1
      - [ -0.70710678118655,  0.00000000000000 ]
      - [  0.00000000000000,  0.00000000000000 ]
      - [  0.00000000000000,  0.00000000000000 ]
    - # atom 2
      - [  0.70414592533122,  0.00000000000000 ]
      - [ -0.00000000000000, -0.00000000000000 ]
      - [  0.00000000000000, -0.06464144057370 ]
  - # 5
    frequency:   13.5409852463
    eigenvector:
    - # atom 1
      - [  0.00000000000000,  0.00000000000000 ]
      - [  0.00000000000010,  0.00000000000001 ]
      - [  0.70685655256061, -0.01880994689344 ]
    - # atom 2
      - [  0.00171954518986,  0.06461856547296 ]
      - [ -0.00000000000010, -0.00000000000001 ]
      - [ -0.70389674448323,  0.01873118433186 ]
  - # 6
    frequency:   13.5635526909
    eigenvector:
    - # atom 1
      - [  0.00000000000000,  0.00000000000000 ]
      - [  0.70231883596266,  0.08214774891652 ]
      - [ -0.00000000000010,  0.00000000000000 ]
    - # atom 2
      - [ -0.00000000000000, -0.00000000000001 ]
      - [ -0.70231883596266, -0.08214774891652 ]
      - [  0.00000000000010, -0.00000000000000 ]

- q-position: [    0.0612245,    0.0000000,    0.0612245 ]
  distance:    0.0216988
  band:
  - # 1
    frequency:    0.7180866820
    eigenvector:
    - # atom 1
      - [  0.00000000000000,  0.00000000000000 ]
      - [  0.00000000000001,  0.00000000000000 ]
      - [ -0.59416221780891,  0.38336830715175 ]
    - # atom 2
      - [  0.04213734774590,  0.06530644167040 ]
      - [  0.00000000000001,  0.00000000000000 ]
      - [ -0.59056228270010,  0.38104553908076 ]
  - # 2
    frequency:    0.7180866820
    eigenvector:
    - # atom 1
      - [ -0.70710678118655,  0.00000000000000 ]
      - [  0.00000000000000,  0.00000000000000 ]
      - [ -0.00000000000000,  0.00000000000000 ]
    - # atom 2
      - [ -0.70282253279280, -0.00000000000000 ]
      - [  0.00000000000000, -0.00000000000000 ]
      - [ -0.00000000000000,  0.07772057255778 ]
  - # 3
    frequency:    1.5795733167
    eigenvector:
    - # atom 1
      - [  0.00000000000000,  0.00000000000000 ]
      - [  0.70097318313559,  0.09293329072383 ]
      - [  0.00000000000000, -0.00000000000000 ]
    - # atom 2
      - [ -0.00000000000000, -0.00000000000000 ]
      - [  0.70097318313559,  0.09293329072383 ]
      - [  0.00000000000000, -0.00000000000000 ]
  - # 4
    frequency:   13.5209589046
    eigenvector:
    - # atom 1
      - [ -0.70710678118655,  0.00000000000000 ]
      - [  0.00000000000000,  0.00000000000000 ]
      - [  0.00000000000000,  0.00000000000000 ]
    - # atom 2
      - [  0.70282253279280,  0.00000000000000 ]
      - [ -0.00000000000000,  0.00000000000000 ]
      - [  0.00000000000000, -0.07772057255778 ]
  - # 5
    frequency:   13.5209589046
    eigenvector:
    - # atom 1
      - [  0.00000000000000,  0.00000000000000 ]
      - [  0.00000000000001,  0.00000000000000 ]
      - [ -0.70252543369481,  0.08036177581364 ]
    - # atom 2
      - [ -0.00883284306440, -0.07721702067620 ]
      - [ -0.00000000000001, -0.00000000000000 ]
      - [  0.69826894296250, -0.07987487649644 ]
  - # 6
    frequency:   13.5532727421
    eigenvector:
    - # atom 1
      - [  0.00000000000000,  0.00000000000000 ]
      - [  0.54066116364991,  0.45572525288898 ]
      - [  0.00000000000001,  0.00000000000000 ]
    - # atom 2
      - [ -0.00000000000000,  0.00000000000000 ]
      - [ -0.54066116364991, -0.45572525288898 ]
      - [ -0.00000000000001, -0.00000000000000 ]

- q-position: [    0.0714286,    0.0000000,    0.0714286 ]
  distance:    0.0253153
  band:
  - # 1
    frequency:    0.8379929159
    eigenvector:
    - # atom 1
      - [  0.00000000000000,  0.00000000000000 ]
      - [  0.00000000000000, -0.00000000000000 ]
      - [  0.61547061199417,  0.34813205220364 ]
    - # atom 2
      - [  0.04474435118965, -0.07910456114471 ]
      - [  0.00000000000000, -0.00000000000000 ]
      - [  0.61036590880764,  0.34524465065825 ]
  - # 2
    frequency:    0.8379929159
    eigenvector:
    - # atom 1
      - [  0.70710678118655,  0.00000000000000 ]
      - [  0.00000000000000,  0.00000000000000 ]
      - [  0.00000000000000,  0.00000000000000 ]
    - # atom 2
      - [  0.70124204911195,  0.00000000000000 ]
      - [ -0.00000000000000,  0.00000000000000 ]
      - [  0.00000000000000, -0.09088227856562 ]
  - # 3
    frequency:    1.8408295746
    eigenvector:
    - # atom 1
      - [  0.00000000000000,  0.00000000000000 ]
      - [ -0.41020929560503,  0.57595862160335 ]
      - [  0.00000000000000, -0.00000000000000 ]
    - # atom 2
      - [ -0.00000000000000, -0.00000000000000 ]
      - [ -0.41020929560503,  0.57595862160335 ]
      - [  0.00000000000000, -0.00000000000000 ]
  - # 4
    frequency:   13.4973857137
    eigenvector:
    - # atom 1
      - [  0.00000000000000,  0.00000000000000 ]
      - [ -0.00000000000001,  0.00000000000001 ]
      - [  0.69520652423339, -0.12918161116553 ]
    - # atom 2
      - [  0.01660331859893,  0.08935277482419 ]
      - [  0.00000000000001, -0.00000000000001 ]
      - [ -0.68944049269527,  0.12811018099599 ]
  - # 5
    frequency:   13.4973857137
    eigenvector:
    - # atom 1
      - [  0.70710678118655,  0.00000000000000 ]
      - [  0.00000000000000,  0.00000000000000 ]
      - [ -0.00000000000000,  0.00000000000000 ]
    - # atom 2
      - [ -0.70124204911195, -0.00000000000000 ]
      - [  0.00000000000000, -0.00000000000000 ]
      - [ -0.00000000000000,  0.09088227856562 ]
  - # 6
    frequency:   13.5410735786
    eigenvector:
    - # atom 1
      - [  0.00000000000000,  0.00000000000000 ]
      - [ -0.11473564842787,  0.69773614710708 ]
      - [ -0.00000000000001,  0.00000000000001 ]
    - # atom 2
      - [ -0.00000000000000, -0.00000000000000 ]
      - [  0.11473564842787, -0.69773614710708 ]
      - [  0.00000000000001, -0.00000000000001 ]

- q-position: [    0.0816327,    0.0000000,    0.0816327 ]
  distance:    0.0289318
  band:
  - # 1
    frequency:    0.9579858924
    eigenvector:
    - # atom 1
      - [ -0.22555258537353,  0.00000000000000 ]
      - [  0.00000000000000,  0.00000000000000 ]
      - [ -0.52258792639032, -0.41955677854419 ]
    - # atom 2
      - [ -0.28488405291933,  0.07696516883728 ]
      - [  0.00000000000000,  0.00000000000000 ]
      - [ -0.51688925660608, -0.38176293112784 ]
  - # 2
    frequency:    0.9579858924
    eigenvector:
    - # atom 1
      - [  0.67016865879517,  0.00000000000000 ]
      - [  0.00000000000000,  0.00000000000000 ]
      - [ -0.17588267719687, -0.14120641851823 ]
    - # atom 2
      - [  0.64206420978917,  0.02590346860769 ]
      - [  0.00000000000000,  0.00000000000000 ]
      - [ -0.17396472760887, -0.23836701611143 ]
  - # 3
    frequency:    2.1011644057
    eigenvector:
    - # atom 1
      - [ -0.00000000000000, -0.00000000000000 ]
      - [  0.70552204912210, -0.04731424946618 ]
      - [  0.00000000000000, -0.00000000000000 ]
    - # atom 2
      - [ -0.00000000000000, -0.00000000000000 ]
      - [  0.70552204912210, -0.04731424946618 ]
      - [  0.00000000000000, -0.00000000000000 ]
  - # 4
    frequency:   13.4703132270
    eigenvector:
    - # atom 1
      - [ -0.06592104732851,  0.00000000000000 ]
      - [  0.00000000000003, -0.00000000000001 ]
      - [  0.70317502524056, -0.03463090234244 ]
    - # atom 2
      - [  0.07030253195452,  0.10356149043401 ]
      - [ -0.00000000000003,  0.00000000000001 ]
      - [ -0.69550710551449,  0.02454460997292 ]
  - # 5
    frequency:   13.4703132270
    eigenvector:
    - # atom 1
      - [ -0.70402728322069,  0.00000000000000 ]
      - [  0.00000000000000,  0.00000000000000 ]
      - [ -0.06584124681512,  0.00324263761754 ]
    - # atom 2
      - [  0.69587250401001, -0.00969689964440 ]
      - [ -0.00000000000000, -0.00000000000000 ]
      - [  0.06512326711288, -0.10689428600572 ]
  - # 6
    frequency:   13.5269304930
    eigenvector:
    - # atom 1
      - [ -0.00000000000000,  0.00000000000000 ]
      - [ -0.69593230533346,  0.12521272456604 ]
      - [  0.00000000000003,  0.00000000000000 ]
    - # atom 2
      - [  0.00000000000000,  0.00000000000000 ]
      - [  0.69593230533346, -0.12521272456604 ]
      - [ -0.00000000000003, -0.00000000000000 ]

- q-position: [    0.0918367,    0.0000000,    0.0918367 ]
  distance:    0.0325483
  band:
  - # 1
    frequency:    1.0780657479
    eigenvector:
    - # atom 1
      - [ -0.70483762720504, -0.00000000000000 ]
      - [  0.00000000000000,  0.00000000000000 ]
      - [  0.03930224686959,  0.04073392525861 ]
    - # atom 2
      - [ -0.68826745135438, -0.00653138333647 ]
      - [  0.00000000000000,  0.00000000000000 ]
      - [  0.03875574332548,  0.15729986903092 ]
  - # 2
    frequency:    1.0780657479
    eigenvector:
    - # atom 1
      - [ -0.05660317372703,  0.00000000000000 ]
      - [ -0.00000000000000, -0.00000000000000 ]
      - [ -0.48940192931552, -0.50722956568626 ]
    - # atom 2
      - [ -0.14010926204125,  0.08133050551982 ]
      - [ -0.00000000000000, -0.00000000000000 ]
      - [ -0.48259672324793, -0.49076995249557 ]
  - # 3
    frequency:    2.3604493128
    eigenvector:
    - # atom 1
      - [  0.00000000000000,  0.00000000000000 ]
      - [  0.70408613412165,  0.06528947646929 ]
      - [ -0.00000000000000, -0.00000000000000 ]
    - # atom 2
      - [  0.00000000000000,  0.00000000000000 ]
      - [  0.70408613412165,  0.06528947646929 ]
      - [ -0.00000000000000, -0.00000000000000 ]
  - # 4
    frequency:   13.4397966299
    eigenvector:
    - # atom 1
      - [ -0.70555923902723,  0.00000000000000 ]
      - [ -0.00000000000000, -0.00000000000000 ]
      - [  0.04659323445476, -0.00390265632124 ]
    - # atom 2
      - [  0.69639689058846,  0.00774302487387 ]
      - [  0.00000000000000,  0.00000000000000 ]
      - [ -0.04594534865206, -0.11340388565549 ]
  - # 5
    frequency:   13.4397966299
    eigenvector:
    - # atom 1
      - [ -0.04675639232573,  0.00000000000000 ]
      - [ -0.00000000000000,  0.00000000000000 ]
      - [ -0.70309716833359,  0.05889152450032 ]
    - # atom 2
      - [  0.03631944053369, -0.11684311954001 ]
      - [  0.00000000000000, -0.00000000000000 ]
      - [  0.69332049842397, -0.06584276817244 ]
  - # 6
    frequency:   13.5108152499
    eigenvector:
    - # atom 1
      - [ -0.00000000000000,  0.00000000000000 ]
      - [  0.68648847521646,  0.16950980324153 ]
      - [ -0.00000000000000, -0.00000000000000 ]
    - # atom 2
      - [  0.00000000000000, -0.00000000000000 ]
      - [ -0.68648847521646, -0.16950980324153 ]
      - [  0.00000000000000,  0.00000000000000 ]

- q-position: [    0.1020408,    0.0000000,    0.1020408 ]
  distance:    0.0361647
  band:
  - # 1
    frequency:    1.1982277151
    eigenvector:
    - # atom 1
      - [ -0.70419456665140,  0.00000000000000 ]
      - [  0.00000000000000,  0.00000000000000 ]
      - [ -0.05130459780802,  0.03844282172800 ]
    - # atom 2
      - [ -0.68488161986744,  0.00950501879605 ]
      - [  0.00000000000000,  0.00000000000000 ]
      - [ -0.05041642960315,  0.16824091360758 ]
  - # 2
    frequency:    1.1982277151
    eigenvector:
    - # atom 1
      - [  0.06410937761868,  0.00000000000000 ]
      - [  0.00000000000000,  0.00000000000000 ]
      - [ -0.56354343721033,  0.42226624548797 ]
    - # atom 2
      - [  0.14123128985488,  0.10440567106901 ]
      - [  0.00000000000000,  0.00000000000000 ]
      - [ -0.55378755987424,  0.40307879768488 ]
  - # 3
    frequency:    2.6185570448
    eigenvector:
    - # atom 1
      - [  0.00000000000000,  0.00000000000000 ]
      - [  0.70696009039253,  0.01440245090923 ]
      - [  0.00000000000000, -0.00000000000000 ]
    - # atom 2
      - [  0.00000000000000, -0.00000000000000 ]
      - [  0.70696009039253,  0.01440245090923 ]
      - [  0.00000000000000, -0.00000000000000 ]
  - # 4
    frequency:   13.4058988824
    eigenvector:
    - # atom 1
      - [ -0.70638349454670,  0.00000000000000 ]
      - [ -0.00000000000001, -0.00000000000000 ]
      - [  0.03131378541217, -0.00646571536267 ]
    - # atom 2
      - [  0.69535269733890,  0.00580139269450 ]
      - [  0.00000000000001,  0.00000000000000 ]
      - [ -0.03077169153042, -0.12451535305609 ]
  - # 5
    frequency:   13.4058988824
    eigenvector:
    - # atom 1
      - [ -0.03197434333947,  0.00000000000000 ]
      - [ -0.00000000000001,  0.00000000000000 ]
      - [ -0.69179031863424,  0.14284185805272 ]
    - # atom 2
      - [  0.00495701545853, -0.12816551074322 ]
      - [  0.00000000000001, -0.00000000000000 ]
      - [  0.67981427376305, -0.14629279900832 ]
  - # 6
    frequency:   13.4926962003
    eigenvector:
    - # atom 1
      - [ -0.00000000000001,  0.00000000000000 ]
      - [  0.70565510575975,  0.04528655115145 ]
      - [ -0.00000000000001, -0.00000000000000 ]
    - # atom 2
      - [  0.00000000000001, -0.00000000000000 ]
      - [ -0.70565510575975, -0.04528655115145 ]
      - [  0.00000000000001,  0.00000000000000 ]

- q-position: [    0.1122449,    0.0000000,    0.1122449 ]
  distance:    0.0397812
  band:
  - # 1
    frequency:    1.3184615059
    eigenvector:
    - # atom 1
      - [  0.70595067195432, -0.00000000000000 ]
      - [ -0.00000000000000, -0.00000000000000 ]
      - [ -0.01334708102016,  0.03815107069912 ]
    - # atom 2
      - [  0.69882837964473,  0.00273009115332 ]
      - [ -0.00000000000000, -0.00000000000000 ]
      - [ -0.01306488323917, -0.10705489821284 ]
  - # 2
    frequency:    1.3184615059
    eigenvector:
    - # atom 1
      - [ -0.04041842113750,  0.00000000000000 ]
      - [  0.00000000000000, -0.00000000000000 ]
      - [ -0.23312095202222,  0.66634898736398 ]
    - # atom 2
      - [  0.09673512287857,  0.04768394286428 ]
      - [  0.00000000000000, -0.00000000000000 ]
      - [ -0.22819206792670,  0.66052777211100 ]
  - # 3
    frequency:    2.8753617468
    eigenvector:
    - # atom 1
      - [ -0.00000000000000,  0.00000000000000 ]
      - [ -0.70702373759091, -0.01083671919834 ]
      - [ -0.00000000000000,  0.00000000000000 ]
    - # atom 2
      - [ -0.00000000000000,  0.00000000000000 ]
      - [ -0.70702373759091, -0.01083671919834 ]
      - [ -0.00000000000000,  0.00000000000000 ]
  - # 4
    frequency:   13.3686908854
    eigenvector:
    - # atom 1
      - [  0.56361270220223,  0.00000000000000 ]
      - [ -0.00000000000000,  0.00000000000000 ]
      - [  0.37886988680301, -0.19697291892587 ]
    - # atom 2
      - [ -0.51140621029226,  0.07749629485723 ]
      - [  0.00000000000000, -0.00000000000000 ]
      - [ -0.37085942809848,  0.30809300048586 ]
  - # 5
    frequency:   13.3686908854
    eigenvector:
    - # atom 1
      - [  0.42701372567671,  0.00000000000000 ]
      - [  0.00000000000001, -0.00000000000000 ]
      - [ -0.50006795529979,  0.25998330362926 ]
    - # atom 2
      - [ -0.47116388783753, -0.10228686697582 ]
      - [ -0.00000000000001,  0.00000000000000 ]
      - [  0.48949500177426, -0.16714254658856 ]
  - # 6
    frequency:   13.4725384092
    eigenvector:
    - # atom 1
      - [  0.00000000000000,  0.00000000000000 ]
      - [ -0.70353354986869, -0.07099679013280 ]
      - [ -0.00000000000001,  0.00000000000000 ]
    - # atom 2
      - [ -0.00000000000000, -0.00000000000000 ]
      - [  0.70353354986869,  0.07099679013280 ]
      - [  0.00000000000001, -0.00000000000000 ]

- q-position: [    0.1224490,    0.0000000,    0.1224490 ]
  distance:    0.0433977
  band:
  - # 1
    frequency:    1.4387506910
    eigenvector:
    - # atom 1
      - [  0.09776464239132,  0.00000000000000 ]
      - [  0.00000000000000, -0.00000000000000 ]
      - [ -0.21611895658479,  0.66613412410925 ]
    - # atom 2
      - [  0.24452155060929,  0.04841976150098 ]
      - [  0.00000000000000, -0.00000000000000 ]
      - [ -0.21062509368897,  0.62729722452146 ]
  - # 2
    frequency:    1.4387506910