8    
1    

1    
  0.0100000000000000   0.0000000000000000   0.0000000000000000
  -0.1023282824    0.0000000030   -0.0000000031
  -0.0162057463   -0.0000000018    0.0000000068
   0.0062341295   -0.0000000059    0.0000000050
   0.0062341224    0.0000000101   -0.0000000055
   0.0266727665    0.0152826519    0.0152826508
   0.0266727708   -0.0152826519   -0.0152826451
   0.0263601195   -0.0148306440    0.0148306315
   0.0263601200    0.0148306385   -0.0148306404
