   2    8
1 1
    10.232828238418902     0.000000000000001     0.000000000000000
    -0.000000000000000    10.232828238418902    -0.000000000000001
     0.000000000000000     0.000000000000000    10.232828238418902
1 2
     1.620574632360611     0.000000000000000     0.000000000000000
    -0.000000000000000    -0.623412598349730     0.000000000000000
     0.000000000000000     0.000000000000000    -0.623412598349730
1 3
    -0.623412598349731     0.000000000000000    -0.000000000000000
     0.000000000000000     1.620574632360611    -0.000000000000000
    -0.000000000000000     0.000000000000000    -0.623412598349730
1 4
    -0.623412598349731    -0.000000000000000    -0.000000000000000
    -0.000000000000000    -0.623412598349730    -0.000000000000000
    -0.000000000000000    -0.000000000000000     1.620574632360611
1 5
    -2.651644418520025    -1.505664426506708    -1.505664426506708
    -1.505664426506708    -2.651644418520025    -1.505664426506708
    -1.505664426506708    -1.505664426506708    -2.651644418520026
1 6
    -2.651644418520025     1.505664426506708     1.505664426506708
     1.505664426506707    -2.651644418520025    -1.505664426506708
     1.505664426506708    -1.505664426506707    -2.651644418520025
1 7
    -2.651644418520025     1.505664426506708    -1.505664426506708
     1.505664426506708    -2.651644418520025     1.505664426506708
    -1.505664426506708     1.505664426506707    -2.651644418520025
1 8
    -2.651644418520026    -1.505664426506708     1.505664426506708
    -1.505664426506707    -2.651644418520025     1.505664426506708
     1.505664426506708     1.505664426506708    -2.651644418520025
5 1
    -2.651644418520025    -1.505664426506707    -1.505664426506708
    -1.505664426506707    -2.651644418520025    -1.505664426506708
    -1.505664426506707    -1.505664426506708    -2.651644418520025
5 2
    -2.651644418520025     1.505664426506708     1.505664426506708
     1.505664426506708    -2.651644418520025    -1.505664426506708
     1.505664426506708    -1.505664426506708    -2.651644418520026
5 3
    -2.651644418520025     1.505664426506708    -1.505664426506708
     1.505664426506709    -2.651644418520026     1.505664426506708
    -1.505664426506708     1.505664426506708    -2.651644418520025
5 4
    -2.651644418520025    -1.505664426506707     1.505664426506707
    -1.505664426506708    -2.651644418520025     1.505664426506707
     1.505664426506707     1.505664426506707    -2.651644418520025
5 5
    10.232828238418902    -0.000000000000001     0.000000000000001
    -0.000000000000002    10.232828238418902     0.000000000000001
     0.000000000000001     0.000000000000001    10.232828238418902
5 6
     1.620574632360611    -0.000000000000000     0.000000000000000
    -0.000000000000000    -0.623412598349731    -0.000000000000000
     0.000000000000000    -0.000000000000000    -0.623412598349730
5 7
    -0.623412598349730     0.000000000000000    -0.000000000000000
    -0.000000000000000     1.620574632360611     0.000000000000000
    -0.000000000000000     0.000000000000000    -0.623412598349730
5 8
    -0.623412598349730     0.000000000000000    -0.000000000000000
     0.000000000000000    -0.623412598349731     0.000000000000000
     0.000000000000000     0.000000000000000     1.620574632360611