   2    8
1 1
    10.232827928390702     0.000000000000001     0.000000000000000
    -0.000000000000000    10.232827928390700    -0.000000000000001
    -0.000000000000000    -0.000000000000000    10.232827928390700
1 2
     1.620577455088740     0.000000000000000     0.000000000000000
    -0.000000000000000    -0.623412877920376     0.000000000000000
     0.000000000000000    -0.000000000000000    -0.623412877920376
1 3
    -0.623412877920376     0.000000000000000    -0.000000000000000
     0.000000000000000     1.620577455088740    -0.000000000000000
    -0.000000000000000     0.000000000000000    -0.623412877920376
1 4
    -0.623412877920376    -0.000000000000000    -0.000000000000000
     0.000000000000000    -0.623412877920376    -0.000000000000000
    -0.000000000000000    -0.000000000000000     1.620577455088740
1 5
    -2.651644906909668    -1.505664644519218    -1.505664644519218
    -1.505664644519217    -2.651644906909667    -1.505664644519217
    -1.505664644519217    -1.505664644519217    -2.651644906909667
1 6
    -2.651644906909668     1.505664644519218     1.505664644519218
     1.505664644519217    -2.651644906909667    -1.505664644519217
     1.505664644519217    -1.505664644519217    -2.651644906909667
1 7
    -2.651644906909667     1.505664644519218    -1.505664644519218
     1.505664644519217    -2.651644906909667     1.505664644519217
    -1.505664644519217     1.505664644519218    -2.651644906909667
1 8
    -2.651644906909668    -1.505664644519218     1.505664644519218
    -1.505664644519218    -2.651644906909667     1.505664644519217
     1.505664644519217     1.505664644519217    -2.651644906909667
5 1
    -2.651644906909667    -1.505664644519217    -1.505664644519217
    -1.505664644519217    -2.651644906909667    -1.505664644519218
    -1.505664644519218    -1.505664644519218    -2.651644906909667
5 2
    -2.651644906909667     1.505664644519218     1.505664644519217
     1.505664644519218    -2.651644906909668    -1.505664644519218
     1.505664644519217    -1.505664644519218    -2.651644906909667
5 3
    -2.651644906909667     1.505664644519218    -1.505664644519218
     1.505664644519218    -2.651644906909668     1.505664644519218
    -1.505664644519218     1.505664644519217    -2.651644906909667
5 4
    -2.651644906909667    -1.505664644519217     1.505664644519217
    -1.505664644519217    -2.651644906909668     1.505664644519217
     1.505664644519217     1.505664644519217    -2.651644906909667
5 5
    10.232827928390700    -0.000000000000001     0.000000000000001
    -0.000000000000002    10.232827928390702     0.000000000000001
     0.000000000000001     0.000000000000001    10.232827928390700
5 6
     1.620577455088740    -0.000000000000000     0.000000000000000
    -0.000000000000000    -0.623412877920376    -0.000000000000000
     0.000000000000000    -0.000000000000000    -0.623412877920376
5 7
    -0.623412877920376     0.000000000000000    -0.000000000000000
    -0.000000000000000     1.620577455088740     0.000000000000000
    -0.000000000000000     0.000000000000000    -0.623412877920376
5 8
    -0.623412877920376     0.000000000000000    -0.000000000000000
     0.000000000000000    -0.623412877920376     0.000000000000000
     0.000000000000000     0.000000000000000     1.620577455088740