8    
1    

1    
  0.0100000000000000   0.0000000000000000   0.0000000000000000
  -0.1023282793    0.0000000001    0.0000000006
  -0.0162057746   -0.0000000108   -0.0000000026
   0.0062341390   -0.0000000021    0.0000000031
   0.0062341186    0.0000000076    0.0000000012
   0.0266727687    0.0152826551    0.0152826546
   0.0266727697   -0.0152826513   -0.0152826576
   0.0263601269   -0.0148306386    0.0148306376
   0.0263601310    0.0148306400   -0.0148306369
