phonopy:
  version: "2.38.2"
  frequency_unit_conversion_factor: 15.633304
  symmetry_tolerance: 1.00000e-05

magnetic_space_group:
  uni_number: 1631
  msg_type: 2

supercell_matrix:
- [  -1,   1,   1 ]
- [   1,  -1,   1 ]
- [   1,   1,  -1 ]

primitive_cell:
  lattice:
  - [     0.000000000000000,     2.821555113426400,     2.821555113426400 ] # a
  - [     2.821555113426400,     0.000000000000000,     2.821555113426400 ] # b
  - [     2.821555113426400,     2.821555113426400,     0.000000000000000 ] # c
  points:
  - symbol: Si # 1
    coordinates: [  0.000000000000000,  0.000000000000000,  0.000000000000000 ]
    mass: 28.085000
    magnetic_moment: 0.00000000
  - symbol: Si # 2
    coordinates: [  0.250000000000000,  0.250000000000000,  0.250000000000000 ]
    mass: 28.085000
    magnetic_moment: 0.00000000
  reciprocal_lattice: # without 2pi
  - [    -0.177207242070426,     0.177207242070426,     0.177207242070426 ] # a*
  - [     0.177207242070426,    -0.177207242070426,     0.177207242070426 ] # b*
  - [     0.177207242070426,     0.177207242070426,    -0.177207242070426 ] # c*

unit_cell:
  lattice:
  - [     0.000000000000000,     2.821555113426400,     2.821555113426400 ] # a
  - [     2.821555113426400,     0.000000000000000,     2.821555113426400 ] # b
  - [     2.821555113426400,     2.821555113426400,     0.000000000000000 ] # c
  points:
  - symbol: Si # 1
    coordinates: [  0.000000000000000,  0.000000000000000,  0.000000000000000 ]
    mass: 28.085000
    reduced_to: 1
    magnetic_moment: 0.00000000
  - symbol: Si # 2
    coordinates: [  0.250000000000000,  0.250000000000000,  0.250000000000000 ]
    mass: 28.085000
    reduced_to: 2
    magnetic_moment: 0.00000000

supercell:
  lattice:
  - [     5.643110226852800,     0.000000000000000,     0.000000000000000 ] # a
  - [     0.000000000000000,     5.643110226852800,    -0.000000000000000 ] # b
  - [    -0.000000000000000,    -0.000000000000000,     5.643110226852800 ] # c
  points:
  - symbol: Si # 1
    coordinates: [  0.000000000000000,  0.000000000000000,  0.000000000000000 ]
    mass: 28.085000
    reduced_to: 1
    magnetic_moment: 0.00000000
  - symbol: Si # 2
    coordinates: [  0.000000000000000,  0.500000000000000,  0.500000000000000 ]
    mass: 28.085000
    reduced_to: 1
    magnetic_moment: 0.00000000
  - symbol: Si # 3
    coordinates: [  0.500000000000000,  0.000000000000000,  0.500000000000000 ]
    mass: 28.085000
    reduced_to: 1
    magnetic_moment: 0.00000000
  - symbol: Si # 4
    coordinates: [  0.500000000000000,  0.500000000000000,  0.000000000000000 ]
    mass: 28.085000
    reduced_to: 1
    magnetic_moment: 0.00000000
  - symbol: Si # 5
    coordinates: [  0.250000000000000,  0.250000000000000,  0.250000000000000 ]
    mass: 28.085000
    reduced_to: 5
    magnetic_moment: 0.00000000
  - symbol: Si # 6
    coordinates: [  0.250000000000000,  0.750000000000000,  0.750000000000000 ]
    mass: 28.085000
    reduced_to: 5
    magnetic_moment: 0.00000000
  - symbol: Si # 7
    coordinates: [  0.750000000000000,  0.250000000000000,  0.750000000000000 ]
    mass: 28.085000
    reduced_to: 5
    magnetic_moment: 0.00000000
  - symbol: Si # 8
    coordinates: [  0.750000000000000,  0.750000000000000,  0.250000000000000 ]
    mass: 28.085000
    reduced_to: 5
    magnetic_moment: 0.00000000

displacements:
- atom:    1
  displacement:
    [   0.0100000000000000,  0.0000000000000000,  0.0000000000000000 ]
  forces:
  - [  -0.1023282823841890,  0.0000000030218577, -0.0000000030866514 ]
  - [  -0.0162057463236061, -0.0000000017510148,  0.0000000067569568 ]
  - [   0.0062341295492403, -0.0000000058942930,  0.0000000050151822 ]
  - [   0.0062341224177544,  0.0000000101115665, -0.0000000054508699 ]
  - [   0.0266727665440407,  0.0152826519337342,  0.0152826507996557 ]
  - [   0.0266727707713147, -0.0152826519454513, -0.0152826450931377 ]
  - [   0.0263601194529572, -0.0148306439648092,  0.0148306314771014 ]
  - [   0.0263601199724884,  0.0148306384884099, -0.0148306404182372 ]
