phonopy:
  version: "2.38.2"
  frequency_unit_conversion_factor: 15.633304
  symmetry_tolerance: 1.00000e-05

magnetic_space_group:
  uni_number: 1631
  msg_type: 2

supercell_matrix:
- [  -1,   1,   1 ]
- [   1,  -1,   1 ]
- [   1,   1,  -1 ]

primitive_cell:
  lattice:
  - [     0.000000000000000,     2.821555113426400,     2.821555113426400 ] # a
  - [     2.821555113426400,     0.000000000000000,     2.821555113426400 ] # b
  - [     2.821555113426400,     2.821555113426400,     0.000000000000000 ] # c
  points:
  - symbol: Si # 1
    coordinates: [  0.000000000000000,  0.000000000000000,  0.000000000000000 ]
    mass: 28.085000
    magnetic_moment: 0.00000000
  - symbol: Si # 2
    coordinates: [  0.250000000000000,  0.250000000000000,  0.250000000000000 ]
    mass: 28.085000
    magnetic_moment: 0.00000000
  reciprocal_lattice: # without 2pi
  - [    -0.177207242070426,     0.177207242070426,     0.177207242070426 ] # a*
  - [     0.177207242070426,    -0.177207242070426,     0.177207242070426 ] # b*
  - [     0.177207242070426,     0.177207242070426,    -0.177207242070426 ] # c*

unit_cell:
  lattice:
  - [     0.000000000000000,     2.821555113426400,     2.821555113426400 ] # a
  - [     2.821555113426400,     0.000000000000000,     2.821555113426400 ] # b
  - [     2.821555113426400,     2.821555113426400,     0.000000000000000 ] # c
  points:
  - symbol: Si # 1
    coordinates: [  0.000000000000000,  0.000000000000000,  0.000000000000000 ]
    mass: 28.085000
    reduced_to: 1
    magnetic_moment: 0.00000000
  - symbol: Si # 2
    coordinates: [  0.250000000000000,  0.250000000000000,  0.250000000000000 ]
    mass: 28.085000
    reduced_to: 2
    magnetic_moment: 0.00000000

supercell:
  lattice:
  - [     5.643110226852800,     0.000000000000000,     0.000000000000000 ] # a
  - [     0.000000000000000,     5.643110226852800,    -0.000000000000000 ] # b
  - [    -0.000000000000000,    -0.000000000000000,     5.643110226852800 ] # c
  points:
  - symbol: Si # 1
    coordinates: [  0.000000000000000,  0.000000000000000,  0.000000000000000 ]
    mass: 28.085000
    reduced_to: 1
    magnetic_moment: 0.00000000
  - symbol: Si # 2
    coordinates: [  1.000000000000000,  0.500000000000000,  0.500000000000000 ]
    mass: 28.085000
    reduced_to: 1
    magnetic_moment: 0.00000000
  - symbol: Si # 3
    coordinates: [  0.500000000000000,  0.000000000000000,  0.500000000000000 ]
    mass: 28.085000
    reduced_to: 1
    magnetic_moment: 0.00000000
  - symbol: Si # 4
    coordinates: [  0.500000000000000,  0.500000000000000,  0.000000000000000 ]
    mass: 28.085000
    reduced_to: 1
    magnetic_moment: 0.00000000
  - symbol: Si # 5
    coordinates: [  0.250000000000000,  0.250000000000000,  0.250000000000000 ]
    mass: 28.085000
    reduced_to: 5
    magnetic_moment: 0.00000000
  - symbol: Si # 6
    coordinates: [  0.250000000000000,  0.750000000000000,  0.750000000000000 ]
    mass: 28.085000
    reduced_to: 5
    magnetic_moment: 0.00000000
  - symbol: Si # 7
    coordinates: [  0.750000000000000,  0.250000000000000,  0.750000000000000 ]
    mass: 28.085000
    reduced_to: 5
    magnetic_moment: 0.00000000
  - symbol: Si # 8
    coordinates: [  0.750000000000000,  0.750000000000000,  0.250000000000000 ]
    mass: 28.085000
    reduced_to: 5
    magnetic_moment: 0.00000000

displacements:
- atom:    1
  displacement:
    [   0.0100000000000000,  0.0000000000000000,  0.0000000000000000 ]
  forces:
  - [  -0.1023282792839070,  0.0000000000936323,  0.0000000006073022 ]
  - [  -0.0162057745508874, -0.0000000108462219, -0.0000000025885933 ]
  - [   0.0062341389538927, -0.0000000020828649,  0.0000000030734314 ]
  - [   0.0062341186045148,  0.0000000076134300,  0.0000000012100489 ]
  - [   0.0266727687087360,  0.0152826550916128,  0.0152826545883493 ]
  - [   0.0266727696792850, -0.0152826513071650, -0.0152826575611605 ]
  - [   0.0263601268944958, -0.0148306385589313,  0.0148306375642163 ]
  - [   0.0263601309938699,  0.0148306399965079, -0.0148306368935943 ]
