nqpoint: 500    
npath: 10     
segment_nqpoint:
- 50
- 50
- 50
- 50
- 50
- 50
- 50
- 50
- 50
- 50
labels:
- [ 'G', 'X' ]
- [ 'X', 'W' ]
- [ 'W', 'K' ]
- [ 'K', 'G' ]
- [ 'G', 'L' ]
- [ 'L', 'U' ]
- [ 'U', 'W' ]
- [ 'W', 'L' ]
- [ 'L', 'K|U' ]
- [ 'K|U', 'X' ]
reciprocal_lattice:
- [  -0.18805667,   0.18805667,   0.18805667 ] # a*
- [   0.18805667,  -0.18805667,   0.18805667 ] # b*
- [   0.18805667,   0.18805667,  -0.18805667 ] # c*
natom: 2      
lattice:
- [     0.000000000000000,     2.658773087651800,     2.658773087651800 ] # a
- [     2.658773087651800,     0.000000000000000,     2.658773087651800 ] # b
- [     2.658773087651800,     2.658773087651800,     0.000000000000000 ] # c
points:
- symbol: Si # 1
  coordinates: [  0.000000000000000,  0.000000000000000,  0.000000000000000 ]
  mass: 28.085000
  magnetic_moment: 0.00000000
- symbol: Si # 2
  coordinates: [  0.250000000000000,  0.250000000000000,  0.250000000000000 ]
  mass: 28.085000
  magnetic_moment: 0.00000000

phonon:
- q-position: [    0.0000000,    0.0000000,    0.0000000 ]
  distance:    0.0000000
  band:
  - # 1
    frequency:    0.0000003603
    eigenvector:
    - # atom 1
      - [ -0.01893094349935, -0.00000000000000 ]
      - [  0.67789719409329,  0.00000000000000 ]
      - [ -0.20024238716781,  0.00000000000000 ]
    - # atom 2
      - [ -0.01893094349935,  0.00000000000000 ]
      - [  0.67789719409329,  0.00000000000000 ]
      - [ -0.20024238716781,  0.00000000000000 ]
  - # 2
    frequency:    0.0000004071
    eigenvector:
    - # atom 1
      - [ -0.08485200543142,  0.00000000000000 ]
      - [ -0.20104509571278,  0.00000000000000 ]
      - [ -0.67259274948821,  0.00000000000000 ]
    - # atom 2
      - [ -0.08485200543142,  0.00000000000000 ]
      - [ -0.20104509571278,  0.00000000000000 ]
      - [ -0.67259274948821,  0.00000000000000 ]
  - # 3
    frequency:    0.0000004200
    eigenvector:
    - # atom 1
      - [ -0.70174194441582,  0.00000000000000 ]
      - [  0.00602193741910,  0.00000000000000 ]
      - [  0.08672934749685,  0.00000000000000 ]
    - # atom 2
      - [ -0.70174194441582,  0.00000000000000 ]
      - [  0.00602193741910,  0.00000000000000 ]
      - [  0.08672934749685,  0.00000000000000 ]
  - # 4
    frequency:   16.2216871341
    eigenvector:
    - # atom 1
      - [ -0.08204380727446,  0.00000000000000 ]
      - [ -0.01180537285504,  0.00000000000000 ]
      - [  0.70223176150019,  0.00000000000000 ]
    - # atom 2
      - [  0.08204380727446,  0.00000000000000 ]
      - [  0.01180537285504,  0.00000000000000 ]
      - [ -0.70223176150019,  0.00000000000000 ]
  - # 5
    frequency:   16.2216871341
    eigenvector:
    - # atom 1
      - [  0.14620819784861,  0.00000000000000 ]
      - [  0.69123030707677,  0.00000000000000 ]
      - [  0.02870235984047,  0.00000000000000 ]
    - # atom 2
      - [ -0.14620819784861,  0.00000000000000 ]
      - [ -0.69123030707677,  0.00000000000000 ]
      - [ -0.02870235984047,  0.00000000000000 ]
  - # 6
    frequency:   16.2216871341
    eigenvector:
    - # atom 1
      - [  0.68694393990323,  0.00000000000000 ]
      - [ -0.14853045394902,  0.00000000000000 ]
      - [  0.07776070781522,  0.00000000000000 ]
    - # atom 2
      - [ -0.68694393990323,  0.00000000000000 ]
      - [  0.14853045394902,  0.00000000000000 ]
      - [ -0.07776070781522,  0.00000000000000 ]

- q-position: [    0.0102041,    0.0000000,    0.0102041 ]
  distance:    0.0038379
  band:
  - # 1
    frequency:    0.1002136233
    eigenvector:
    - # atom 1
      - [ -0.01206107332328,  0.00000000000000 ]
      - [ -0.00000000000013, -0.00000000000001 ]
      - [ -0.70371944318712,  0.06806963927260 ]
    - # atom 2
      - [ -0.01029720506533,  0.01819359347596 ]
      - [ -0.00000000000013, -0.00000000000001 ]
      - [ -0.70348422006184,  0.06835870718683 ]
  - # 2
    frequency:    0.1002136233
    eigenvector:
    - # atom 1
      - [  0.70700391124115,  0.00000000000000 ]
      - [  0.00000000000003,  0.00000000000000 ]
      - [ -0.01200504221879,  0.00116122824401 ]
    - # atom 2
      - [  0.70679761204567,  0.00031037206646 ]
      - [  0.00000000000003,  0.00000000000000 ]
      - [ -0.01200102944981, -0.01711766829538 ]
  - # 3
    frequency:    0.3214222242
    eigenvector:
    - # atom 1
      - [ -0.00000000000003,  0.00000000000000 ]
      - [  0.70607597549578,  0.03816695989580 ]
      - [ -0.00000000000013,  0.00000000000001 ]
    - # atom 2
      - [ -0.00000000000003,  0.00000000000000 ]
      - [  0.70607597549578,  0.03816695989580 ]
      - [ -0.00000000000013,  0.00000000000001 ]
  - # 4
    frequency:   16.2205400402
    eigenvector:
    - # atom 1
      - [  0.16685499279698,  0.00000000000000 ]
      - [  0.00000000001038, -0.00000000000026 ]
      - [ -0.68663933220810,  0.02618852503547 ]
    - # atom 2
      - [ -0.16747628474733, -0.01775201324298 ]
      - [ -0.00000000001038,  0.00000000000026 ]
      - [  0.68640981822888, -0.02186598984828 ]
  - # 5
    frequency:   16.2205400402
    eigenvector:
    - # atom 1
      - [  0.68713856781491,  0.00000000000000 ]
      - [  0.00000000000068,  0.00000000000006 ]
      - [  0.16673376549658, -0.00635925031839 ]
    - # atom 2
      - [ -0.68674447823957,  0.00431064734324 ]
      - [ -0.00000000000068, -0.00000000000006 ]
      - [ -0.16667803357416,  0.02412204491325 ]
  - # 6
    frequency:   16.2207042709
    eigenvector:
    - # atom 1
      - [  0.00000000000311,  0.00000000000000 ]
      - [ -0.70710671505877,  0.00030580843678 ]
      - [ -0.00000000000993,  0.00000000000011 ]
    - # atom 2
      - [ -0.00000000000311, -0.00000000000026 ]
      - [  0.70710671505877, -0.00030580843678 ]
      - [  0.00000000000993, -0.00000000000003 ]

- q-position: [    0.0204082,    0.0000000,    0.0204082 ]
  distance:    0.0076758
  band:
  - # 1
    frequency:    0.2003877012
    eigenvector:
    - # atom 1
      - [ -0.22157250265475,  0.00000000000000 ]
      - [  0.00000000000001, -0.00000000000000 ]
      - [ -0.66779792150293, -0.07036733690907 ]
    - # atom 2
      - [ -0.22491466050913,  0.03453064200751 ]
      - [  0.00000000000001, -0.00000000000000 ]
      - [ -0.66690456493128, -0.05881608219211 ]
  - # 2
    frequency:    0.2003877012
    eigenvector:
    - # atom 1
      - [  0.67149506779075,  0.00000000000000 ]
      - [  0.00000000000003,  0.00000000000000 ]
      - [ -0.22035255928515, -0.02321903419989 ]
    - # atom 2
      - [  0.66939615037244,  0.01139403866815 ]
      - [  0.00000000000003,  0.00000000000000 ]
      - [ -0.22005777938156, -0.05790978745466 ]
  - # 3
    frequency:    0.6426762559
    eigenvector:
    - # atom 1
      - [ -0.00000000000002,  0.00000000000000 ]
      - [  0.70689754720047,  0.01720051632846 ]
      - [  0.00000000000002,  0.00000000000000 ]
    - # atom 2
      - [ -0.00000000000002, -0.00000000000000 ]
      - [  0.70689754720047,  0.01720051632846 ]
      - [  0.00000000000002,  0.00000000000000 ]
  - # 4
    frequency:   16.2171022030
    eigenvector:
    - # atom 1
      - [  0.70706884928795,  0.00000000000000 ]
      - [  0.00000000000050,  0.00000000000000 ]
      - [  0.00729884338567, -0.00060766095970 ]
    - # atom 2
      - [ -0.70609153638361,  0.00037741020136 ]
      - [ -0.00000000000050, -0.00000000000000 ]
      - [ -0.00728907924970,  0.03716811984308 ]
  - # 5
    frequency:   16.2171022030
    eigenvector:
    - # atom 1
      - [ -0.00732409493456,  0.00000000000000 ]
      - [  0.00000000000057, -0.00000000000007 ]
      - [  0.70463106226069, -0.05866364914296 ]
    - # atom 2
      - [  0.01034768990851,  0.03643521816231 ]
      - [ -0.00000000000057,  0.00000000000007 ]
      - [ -0.70368843160882,  0.05820645506244 ]
  - # 6
    frequency:   16.2177529410
    eigenvector:
    - # atom 1
      - [ -0.00000000000050,  0.00000000000000 ]
      - [  0.70709650485925,  0.00381219304751 ]
      - [ -0.00000000000058, -0.00000000000003 ]
    - # atom 2
      - [  0.00000000000050, -0.00000000000003 ]
      - [ -0.70709650485925, -0.00381219304751 ]
      - [  0.00000000000058,  0.00000000000000 ]

- q-position: [    0.0306122,    0.0000000,    0.0306122 ]
  distance:    0.0115137
  band:
  - # 1
    frequency:    0.3004823027
    eigenvector:
    - # atom 1
      - [  0.03742117726851, -0.00000000000000 ]
      - [  0.00000000000004,  0.00000000000001 ]
      - [ -0.70442307657571, -0.04886496372094 ]
    - # atom 2
      - [  0.03351820708927,  0.05463885324277 ]
      - [  0.00000000000004,  0.00000000000001 ]
      - [ -0.70230083762495, -0.05162033495756 ]
  - # 2
    frequency:    0.3004823027
    eigenvector:
    - # atom 1
      - [ -0.70611589381053,  0.00000000000000 ]
      - [ -0.00000000000004, -0.00000000000000 ]
      - [ -0.03733146506350, -0.00258963788473 ]
    - # atom 2
      - [ -0.70418942113468,  0.00289562978382 ]
      - [ -0.00000000000004, -0.00000000000000 ]
      - [ -0.03721899531076,  0.05218832128189 ]
  - # 3
    frequency:    0.9635941059
    eigenvector:
    - # atom 1
      - [ -0.00000000000004,  0.00000000000000 ]
      - [  0.70703425764983,  0.01012711753438 ]
      - [  0.00000000000004, -0.00000000000000 ]
    - # atom 2
      - [ -0.00000000000004, -0.00000000000000 ]
      - [  0.70703425764983,  0.01012711753438 ]
      - [  0.00000000000004,  0.00000000000000 ]
  - # 4
    frequency:   16.2113839552
    eigenvector:
    - # atom 1
      - [ -0.45354591013537,  0.00000000000000 ]
      - [  0.00000000000041,  0.00000000000000 ]
      - [  0.53763535847316, -0.07241773759872 ]
    - # atom 2
      - [  0.45779660753577,  0.04170189822931 ]
      - [ -0.00000000000041, -0.00000000000000 ]
      - [ -0.53601560645623,  0.03702009519408 ]
  - # 5
    frequency:   16.2113839552
    eigenvector:
    - # atom 1
      - [ -0.54249065190055,  0.00000000000000 ]
      - [ -0.00000000000001, -0.00000000000000 ]
      - [ -0.44948667248992,  0.06054439573122 ]
    - # atom 2
      - [  0.53616012228957, -0.03486461069979 ]
      - [  0.00000000000001,  0.00000000000000 ]
      - [  0.44813248896595, -0.10244049258166 ]
  - # 6
    frequency:   16.2128249352
    eigenvector:
    - # atom 1
      - [  0.00000000000025,  0.00000000000000 ]
      - [  0.70710222637603,  0.00253800198309 ]
      - [ -0.00000000000032,  0.00000000000004 ]
    - # atom 2
      - [ -0.00000000000026, -0.00000000000002 ]
      - [ -0.70710222637603, -0.00253800198308 ]
      - [  0.00000000000032, -0.00000000000002 ]

- q-position: [    0.0408163,    0.0000000,    0.0408163 ]
  distance:    0.0153516
  band:
  - # 1
    frequency:    0.4004567275
    eigenvector:
    - # atom 1
      - [ -0.69957627965918, -0.00000000000000 ]
      - [ -0.00000000000001, -0.00000000000000 ]
      - [ -0.10114859764513, -0.01902603828034 ]
    - # atom 2
      - [ -0.69779234828612,  0.01046138843581 ]
      - [ -0.00000000000001, -0.00000000000000 ]
      - [ -0.10060615367646,  0.05343032722871 ]
  - # 2
    frequency:    0.4004567275
    eigenvector:
    - # atom 1
      - [ -0.10292244137321,  0.00000000000000 ]
      - [ -0.00000000000001,  0.00000000000000 ]
      - [  0.68751924934171,  0.12932228286878 ]
    - # atom 2
      - [ -0.08899520634617, -0.07110732221608 ]
      - [ -0.00000000000001,  0.00000000000000 ]
      - [  0.68383219209295,  0.13927359775642 ]
  - # 3
    frequency:    1.2840081909
    eigenvector:
    - # atom 1
      - [ -0.00000000000002,  0.00000000000000 ]
      - [  0.70689957660323,  0.01711690971446 ]
      - [  0.00000000000001,  0.00000000000000 ]
    - # atom 2
      - [ -0.00000000000002, -0.00000000000000 ]
      - [  0.70689957660323,  0.01711690971446 ]
      - [  0.00000000000001,  0.00000000000001 ]
  - # 4
    frequency:   16.2034025174
    eigenvector:
    - # atom 1
      - [ -0.69431725262551,  0.00000000000000 ]
      - [  0.00000000000021, -0.00000000000001 ]
      - [  0.13386386131860, -0.00200482902866 ]
    - # atom 2
      - [  0.69080109007760,  0.01384499521866 ]
      - [ -0.00000000000021,  0.00000000000001 ]
      - [ -0.13314597055308, -0.06981633462503 ]
  - # 5
    frequency:   16.2034025174
    eigenvector:
    - # atom 1
      - [  0.13387887326446,  0.00000000000000 ]
      - [  0.00000000000080, -0.00000000000004 ]
      - [  0.69423939827294, -0.01039736404423 ]
    - # atom 2
      - [ -0.13208554487896,  0.07180235991263 ]
      - [ -0.00000000000080,  0.00000000000004 ]
      - [ -0.69051630192585,  0.02418815246470 ]
  - # 6
    frequency:   16.2059066091
    eigenvector:
    - # atom 1
      - [  0.00000000000005,  0.00000000000000 ]
      - [  0.70709108036774,  0.00471211888417 ]
      - [ -0.00000000000083, -0.00000000000003 ]
    - # atom 2
      - [ -0.00000000000005, -0.00000000000009 ]
      - [ -0.70709108036774, -0.00471211888417 ]
      - [  0.00000000000082,  0.00000000000004 ]

- q-position: [    0.0510204,    0.0000000,    0.0510204 ]
  distance:    0.0191895
  band:
  - # 1
    frequency:    0.5002691256
    eigenvector:
    - # atom 1
      - [  0.70143729289038,  0.00000000000000 ]
      - [  0.00000000000001,  0.00000000000000 ]
      - [ -0.08802011536538, -0.01543319259521 ]
    - # atom 2
      - [  0.69355460065646,  0.01138016106059 ]
      - [  0.00000000000001,  0.00000000000000 ]
      - [ -0.08728134189602, -0.10599280729998 ]
  - # 2
    frequency:    0.5002691256
    eigenvector:
    - # atom 1
      - [ -0.08936287899690,  0.00000000000000 ]
      - [  0.00000000000000,  0.00000000000000 ]
      - [ -0.69089751958337, -0.12113997395960 ]
    - # atom 2
      - [ -0.10427507815659,  0.08932645698749 ]
      - [  0.00000000000000,  0.00000000000000 ]
      - [ -0.68509865468304, -0.10856945016433 ]
  - # 3
    frequency:    1.6037515362
    eigenvector:
    - # atom 1
      - [ -0.00000000000001,  0.00000000000000 ]
      - [  0.70695048306178,  0.01486655638374 ]
      - [  0.00000000000001,  0.00000000000000 ]
    - # atom 2
      - [ -0.00000000000001, -0.00000000000000 ]
      - [  0.70695048306178,  0.01486655638374 ]
      - [  0.00000000000001,  0.00000000000000 ]
  - # 4
    frequency:   16.1931819970
    eigenvector:
    - # atom 1
      - [ -0.06359417370214,  0.00000000000000 ]
      - [  0.00000000000051, -0.00000000000003 ]
      - [  0.67840496222369, -0.18900393726430 ]
    - # atom 2
      - [  0.08749681857011,  0.08771128852035 ]
      - [ -0.00000000000051,  0.00000000000003 ]
      - [ -0.67271095028685,  0.17919546302956 ]
  - # 5
    frequency:   16.1931819970
    eigenvector:
    - # atom 1
      - [ -0.70424128043671,  0.00000000000000 ]
      - [ -0.00000000000000,  0.00000000000000 ]
      - [ -0.06126111065414,  0.01706737385420 ]
    - # atom 2
      - [  0.69612376963375, -0.00792047707618 ]
      - [  0.00000000000000, -0.00000000000000 ]
      - [  0.06074693178643, -0.10797580132755 ]
  - # 6
    frequency:   16.1969789402
    eigenvector:
    - # atom 1
      - [  0.00000000000004,  0.00000000000000 ]
      - [  0.70680883135890, -0.02052500701761 ]
      - [ -0.00000000000049,  0.00000000000012 ]
    - # atom 2
      - [ -0.00000000000006, -0.00000000000006 ]
      - [ -0.70680883135890,  0.02052500701761 ]
      - [  0.00000000000049, -0.00000000000011 ]

- q-position: [    0.0612245,    0.0000000,    0.0612245 ]
  distance:    0.0230273
  band:
  - # 1
    frequency:    0.5998761215
    eigenvector:
    - # atom 1
      - [ -0.70699852834438,  0.00000000000000 ]
      - [ -0.00000000000000, -0.00000000000000 ]
      - [ -0.01152432526266,  0.00450231564046 ]
    - # atom 2
      - [ -0.69773784092047,  0.00178810420897 ]
      - [ -0.00000000000000, -0.00000000000000 ]
      - [ -0.01138475981730,  0.11414506242008 ]
  - # 2
    frequency:    0.5998761215
    eigenvector:
    - # atom 1
      - [  0.01237258739658,  0.00000000000000 ]
      - [  0.00000000000001, -0.00000000000000 ]
      - [ -0.65852684969653,  0.25727282660608 ]
    - # atom 2
      - [  0.05214097539255,  0.10217644893073 ]
      - [  0.00000000000001, -0.00000000000000 ]
      - [ -0.65055175432485,  0.25223740189329 ]
  - # 3
    frequency:    1.9226579772
    eigenvector:
    - # atom 1
      - [ -0.00000000000000,  0.00000000000000 ]
      - [  0.70496143739692,  0.05503972913512 ]
      - [  0.00000000000001, -0.00000000000000 ]
    - # atom 2
      - [ -0.00000000000000, -0.00000000000000 ]
      - [  0.70496143739692,  0.05503972913512 ]
      - [  0.00000000000001,  0.00000000000000 ]
  - # 4
    frequency:   16.1807533856
    eigenvector:
    - # atom 1
      - [  0.70605872466215,  0.00000000000000 ]
      - [  0.00000000000005,  0.00000000000000 ]
      - [ -0.03810192083331,  0.00541488294138 ]
    - # atom 2
      - [ -0.69834816258074, -0.00591186064772 ]
      - [ -0.00000000000005, -0.00000000000000 ]
      - [  0.03764048717631,  0.10420214704561 ]
  - # 5
    frequency:   16.1807533856
    eigenvector:
    - # atom 1
      - [  0.03848476748607,  0.00000000000000 ]
      - [  0.00000000000013, -0.00000000000002 ]
      - [  0.69903484906033, -0.09934385975359 ]
    - # atom 2
      - [ -0.02260459113704,  0.10846163461479 ]
      - [ -0.00000000000013,  0.00000000000002 ]
      - [ -0.69056918119584,  0.10411201784004 ]
  - # 6
    frequency:   16.1860176066
    eigenvector:
    - # atom 1
      - [ -0.00000000000006,  0.00000000000000 ]
      - [  0.70708014281857,  0.00613772202665 ]
      - [ -0.00000000000013,  0.00000000000000 ]
    - # atom 2
      - [  0.00000000000006, -0.00000000000002 ]
      - [ -0.70708014281857, -0.00613772202665 ]
      - [  0.00000000000013, -0.00000000000001 ]

- q-position: [    0.0714286,    0.0000000,    0.0714286 ]
  distance:    0.0268652
  band:
  - # 1
    frequency:    0.6992324453
    eigenvector:
    - # atom 1
      - [  0.70403963205023,  0.00000000000000 ]
      - [ -0.00000000000000,  0.00000000000000 ]
      - [  0.02704527904075, -0.05997290541729 ]
    - # atom 2
      - [  0.68155000365304, -0.00489604835293 ]
      - [ -0.00000000000000,  0.00000000000000 ]
      - [  0.02659841778975, -0.18643536521312 ]
  - # 2
    frequency:    0.6992324453
    eigenvector:
    - # atom 1
      - [ -0.06578903026025,  0.00000000000000 ]
      - [  0.00000000000000, -0.00000000000000 ]
      - [  0.28942436496214, -0.64179852014762 ]
    - # atom 2
      - [ -0.18088778795577, -0.05239493677386 ]
      - [  0.00000000000000, -0.00000000000000 ]
      - [  0.28464229066357, -0.61928438147165 ]
  - # 3
    frequency:    2.2405623601
    eigenvector:
    - # atom 1
      - [ -0.00000000000000,  0.00000000000000 ]
      - [ -0.66022157179820,  0.25319454206659 ]
      - [  0.00000000000000, -0.00000000000000 ]
    - # atom 2
      - [ -0.00000000000000, -0.00000000000000 ]
      - [ -0.66022157179820,  0.25319454206659 ]
      - [  0.00000000000000, -0.00000000000000 ]
  - # 4
    frequency:   16.1661545557
    eigenvector:
    - # atom 1
      - [  0.20222093009249,  0.00000000000000 ]
      - [  0.00000000000015, -0.00000000000002 ]
      - [ -0.66105705267235,  0.14869522031548 ]
    - # atom 2
      - [ -0.22579821652954, -0.11967217232459 ]
      - [ -0.00000000000015,  0.00000000000002 ]
      - [  0.65013459995525, -0.10963000740772 ]
  - # 5
    frequency:   16.1661545557
    eigenvector:
    - # atom 1
      - [  0.67757412541546,  0.00000000000000 ]
      - [  0.00000000000006,  0.00000000000001 ]
      - [  0.19729143575787, -0.04437785420756 ]
    - # atom 2
      - [ -0.65834497490278,  0.03571597126562 ]
      - [ -0.00000000000006, -0.00000000000001 ]
      - [ -0.19403164695471,  0.16630689521740 ]
  - # 6
    frequency:   16.1729930877
    eigenvector:
    - # atom 1
      - [  0.00000000000010,  0.00000000000000 ]
      - [ -0.70709887491502, -0.00334381427708 ]
      - [ -0.00000000000013,  0.00000000000001 ]
    - # atom 2
      - [ -0.00000000000010, -0.00000000000002 ]
      - [  0.70709887491502,  0.00334381427708 ]
      - [  0.00000000000013,  0.00000000000001 ]

- q-position: [    0.0816327,    0.0000000,    0.0816327 ]
  distance:    0.0307031
  band:
  - # 1
    frequency:    0.7982905725
    eigenvector:
    - # atom 1
      - [ -0.03938096278578,  0.00000000000000 ]
      - [ -0.00000000000000,  0.00000000000000 ]
      - [ -0.40513083461738,  0.57820251349530 ]
    - # atom 2
      - [  0.08110513352824,  0.08382424607295 ]
      - [ -0.00000000000000,  0.00000000000000 ]
      - [ -0.39636408632478,  0.57383879631617 ]
  - # 2
    frequency:    0.7982905725
    eigenvector:
    - # atom 1
      - [  0.70600930572484,  0.00000000000000 ]
      - [  0.00000000000000,  0.00000000000000 ]
      - [ -0.02259806236557,  0.03225194268966 ]
    - # atom 2
      - [  0.69740489747616,  0.00467568839161 ]
      - [  0.00000000000000,  0.00000000000000 ]
      - [ -0.02210905607987, -0.11452395624318 ]
  - # 3
    frequency:    2.5573007413
    eigenvector:
    - # atom 1
      - [  0.00000000000001,  0.00000000000000 ]
      - [ -0.70684531683470, -0.01922753413326 ]
      - [  0.00000000000000, -0.00000000000000 ]
    - # atom 2
      - [  0.00000000000000, -0.00000000000000 ]
      - [ -0.70684531683471, -0.01922753413326 ]
      - [  0.00000000000000, -0.00000000000000 ]
  - # 4
    frequency:   16.1494302553
    eigenvector:
    - # atom 1
      - [ -0.68845083696154,  0.00000000000000 ]
      - [  0.00000000000013, -0.00000000000001 ]
      - [  0.15667583432030,  0.03857626248087 ]
    - # atom 2
      - [  0.66557155815523,  0.03241726515868 ]
      - [ -0.00000000000013,  0.00000000000001 ]
      - [ -0.15328547869773, -0.18018652534209 ]
  - # 5
    frequency:   16.1494302553
    eigenvector:
    - # atom 1
      - [  0.16135502808080,  0.00000000000000 ]
      - [  0.00000000000040, -0.00000000000003 ]
      - [  0.66848619812111,  0.16459270285959 ]
    - # atom 2
      - [ -0.19191873553367,  0.13831421057002 ]
      - [ -0.00000000000040,  0.00000000000003 ]
      - [ -0.65402062370602, -0.12764561047187 ]
  - # 6
    frequency:   16.1578707860
    eigenvector:
    - # atom 1
      - [ -0.00000000000004,  0.00000000000000 ]
      - [ -0.70682991675460,  0.01978557001159 ]
      - [  0.00000000000040,  0.00000000000011 ]
    - # atom 2
      - [  0.00000000000001,  0.00000000000008 ]
      - [  0.70682991675460, -0.01978557001159 ]
      - [ -0.00000000000039, -0.00000000000012 ]

- q-position: [    0.0918367,    0.0000000,    0.0918367 ]
  distance:    0.0345410
  band:
  - # 1
    frequency:    0.8970003732
    eigenvector:
    - # atom 1
      - [ -0.70562911356740,  0.00000000000000 ]
      - [ -0.00000000000000, -0.00000000000000 ]
      - [ -0.04161628837578, -0.01885838349128 ]
    - # atom 2
      - [ -0.69063455964491,  0.00968754140151 ]
      - [ -0.00000000000000, -0.00000000000000 ]
      - [ -0.04047304040679,  0.14591774931755 ]
  - # 2
    frequency:    0.8970003732
    eigenvector:
    - # atom 1
      - [  0.04568975909414,  0.00000000000000 ]
      - [  0.00000000000000,  0.00000000000000 ]
      - [ -0.64271874614316, -0.29124741933635 ]
    - # atom 2
      - [ -0.02336267852938,  0.14961364181652 ]
      - [  0.00000000000000,  0.00000000000000 ]
      - [ -0.62506251273471, -0.29388228699277 ]
  - # 3
    frequency:    2.8727105856
    eigenvector:
    - # atom 1
      - [ -0.00000000000000, -0.00000000000000 ]
      - [  0.70611093693235,  0.03751459375381 ]
      - [  0.00000000000000, -0.00000000000000 ]
    - # atom 2
      - [ -0.00000000000000, -0.00000000000000 ]
      - [  0.70611093693235,  0.03751459375381 ]
      - [  0.00000000000000,  0.00000000000000 ]
  - # 4
    frequency:   16.1306320995
    eigenvector:
    - # atom 1
      - [  0.69178134662410,  0.00000000000000 ]
      - [ -0.00000000000001,  0.00000000000001 ]
      - [ -0.14577033596585,  0.01376871872602 ]
    - # atom 2
      - [ -0.67598242239356, -0.03393277536020 ]
      - [  0.00000000000001, -0.00000000000001 ]
      - [  0.14176585485917,  0.14764407799615 ]
  - # 5
    frequency:   16.1306320995
    eigenvector:
    - # atom 1
      - [  0.14641915333368,  0.00000000000000 ]
      - [  0.00000000000009, -0.00000000000003 ]
      - [  0.68871590236893, -0.06505257382458 ]
    - # atom 2
      - [ -0.12725375120394,  0.16032097235175 ]
      - [ -0.00000000000009,  0.00000000000003 ]
      - [ -0.66979607344328,  0.09734931242018 ]
  - # 6
    frequency:   16.1406111693
    eigenvector:
    - # atom 1
      - [ -0.00000000000001,  0.00000000000000 ]
      - [  0.69837230860420,  0.11079764697337 ]
      - [ -0.00000000000009, -0.00000000000004 ]
    - # atom 2
      - [  0.00000000000002, -0.00000000000002 ]
      - [ -0.69837230860420, -0.11079764697337 ]
      - [  0.00000000000009,  0.00000000000004 ]

- q-position: [    0.1020408,    0.0000000,    0.1020408 ]
  distance:    0.0383789
  band:
  - # 1
    frequency:    0.9953087743
    eigenvector:
    - # atom 1
      - [ -0.69552183710950,  0.00000000000000 ]
      - [ -0.00000000000000, -0.00000000000000 ]
      - [  0.03866101212150, -0.12146892707837 ]
    - # atom 2
      - [ -0.70327153360751, -0.00999991109042 ]
      - [ -0.00000000000000, -0.00000000000000 ]
      - [  0.03734535629021,  0.06256577466221 ]
  - # 2
    frequency:    0.9953087743
    eigenvector:
    - # atom 1
      - [  0.12747303284942,  0.00000000000000 ]
      - [ -0.00000000000000,  0.00000000000000 ]
      - [  0.21094326834620, -0.66276207151254 ]
    - # atom 2
      - [ -0.04829247496684, -0.05456178751747 ]
      - [ -0.00000000000000,  0.00000000000000 ]
      - [  0.20376475113099, -0.67317960040468 ]
  - # 3
    frequency:    3.1866309619
    eigenvector:
    - # atom 1
      - [  0.00000000000000,  0.00000000000000 ]
      - [ -0.69760014577656, -0.11555966689341 ]
      - [ -0.00000000000000,  0.00000000000000 ]
    - # atom 2
      - [  0.00000000000000,  0.00000000000000 ]
      - [ -0.69760014577656, -0.11555966689341 ]
      - [ -0.00000000000000,  0.00000000000000 ]
  - # 4
    frequency:   16.1098185588
    eigenvector:
    - # atom 1
      - [ -0.42897421071710,  0.00000000000000 ]
      - [ -0.00000000000006,  0.00000000000000 ]
      - [  0.42342896382784,  0.36971480783345 ]
    - # atom 2
      - [  0.31874694569993,  0.10952253340079 ]
      - [  0.00000000000006, -0.00000000000000 ]
      - [ -0.40901943974069, -0.46809005244573 ]
  - # 5
    frequency:   16.1098185588
    eigenvector:
    - # atom 1
      - [  0.56212198546191,  0.00000000000000 ]
      - [ -0.00000000000001,  0.00000000000000 ]
      - [  0.32313289686321,  0.28214181615838 ]
    - # atom 2
      - [ -0.61597039485841,  0.08358033227029 ]
      - [  0.00000000000001, -0.00000000000000 ]
      - [ -0.31213650394146, -0.12714402708252 ]
  - # 6
    frequency:   16.1211699327
    eigenvector:
    - # atom 1
      - [  0.00000000000003,  0.00000000000000 ]
      - [ -0.70704962914908, -0.00899010123126 ]
      - [ -0.00000000000003, -0.00000000000004 ]
    - # atom 2
      - [ -0.00000000000002, -0.00000000000001 ]
      - [  0.70704962914908,  0.00899010123126 ]
      - [  0.00000000000003,  0.00000000000005 ]

- q-position: [    0.1122449,    0.0000000,    0.1122449 ]
  distance:    0.0422168
  band:
  - # 1
    frequency:    1.0931594348
    eigenvector:
    - # atom 1
      - [  0.70311796840746, -0.00000000000000 ]
      - [ -0.00000000000000,  0.00000000000000 ]
      - [ -0.00870765985911, -0.07449361826588 ]
    - # atom 2
      - [  0.65286212044938,  0.00247753818211 ]
      - [ -0.00000000000000,  0.00000000000000 ]
      - [ -0.00834776286067, -0.27146865075384 ]
  - # 2
    frequency:    1.0931594348
    eigenvector:
    - # atom 1
      - [  0.07500081667932,  0.00000000000000 ]
      - [  0.00000000000000, -0.00000000000000 ]
      - [  0.08163260589408,  0.69836308260988 ]
    - # atom 2
      - [  0.27060200699898, -0.02322643526277 ]
      - [  0.00000000000000, -0.00000000000000 ]
      - [  0.07825864201507,  0.64815944910421 ]
  - # 3
    frequency:    3.4989027379
    eigenvector:
    - # atom 1
      - [ -0.00000000000000,  0.00000000000000 ]
      - [ -0.65717788588981,  0.26099277058455 ]
      - [  0.00000000000000,  0.00000000000000 ]
    - # atom 2
      - [  0.00000000000000, -0.00000000000000 ]
      - [ -0.65717788588981,  0.26099277058455 ]
      - [  0.00000000000000,  0.00000000000000 ]
  - # 4
    frequency:   16.0870549424
    eigenvector:
    - # atom 1
      - [  0.70682732267202,  0.00000000000000 ]
      - [  0.00000000000006, -0.00000000000000 ]
      - [ -0.01978298722563,  0.00194147900876 ]
    - # atom 2
      - [ -0.67816578243012, -0.00562873458550 ]
      - [ -0.00000000000006,  0.00000000000000 ]
      - [  0.01896533497029,  0.19924809900568 ]
  - # 5
    frequency:   16.0870549424
    eigenvector:
    - # atom 1
      - [  0.01987802616737,  0.00000000000000 ]
      - [  0.00000000000000,  0.00000000000001 ]
      - [  0.70344790661842, -0.06903554700194 ]
    - # atom 2
      - [  0.00058582387452,  0.20014780962654 ]
      - [ -0.00000000000000, -0.00000000000001 ]
      - [ -0.67437364393008,  0.07183800863440 ]
  - # 6
    frequency:   16.0994981790
    eigenvector:
    - # atom 1
      - [  0.00000000000006,  0.00000000000000 ]
      - [ -0.70708584021775,  0.00544192645707 ]
      - [  0.00000000000000, -0.00000000000001 ]
    - # atom 2
      - [ -0.00000000000005,  0.00000000000000 ]
      - [  0.70708584021775, -0.00544192645707 ]
      - [ -0.00000000000000,  0.00000000000002 ]

- q-position: [    0.1224490,    0.0000000,    0.1224490 ]
  distance:    0.0460547
  band:
  - # 1
    frequency:    1.1904924379
    eigenvector:
    - # atom 1
      - [ -0.44535936287039, -0.00000000000000 ]
      - [ -0.00000000000000,  0.00000000000000 ]
      - [ -0.54612890326564,  0.05829458741216 ]
    - # atom 2
      - [ -0.40527060283966,  0.16950784023341 ]
      - [ -0.00000000000000,  0.00000000000000 ]
      - [ -0.51915688484458,  0.19364648071125 ]
  - # 2
    frequency:    1.1904924379