nqpoint: 500    
npath: 10     
segment_nqpoint:
- 50
- 50
- 50
- 50
- 50
- 50
- 50
- 50
- 50
- 50
labels:
- [ 'G', 'X' ]
- [ 'X', 'W' ]
- [ 'W', 'K' ]
- [ 'K', 'G' ]
- [ 'G', 'L' ]
- [ 'L', 'U' ]
- [ 'U', 'W' ]
- [ 'W', 'L' ]
- [ 'L', 'K|U' ]
- [ 'K|U', 'X' ]
reciprocal_lattice:
- [  -0.18805667,   0.18805667,   0.18805667 ] # a*
- [   0.18805667,  -0.18805667,   0.18805667 ] # b*
- [   0.18805667,   0.18805667,  -0.18805667 ] # c*
natom: 2      
lattice:
- [     0.000000000000000,     2.658773087651800,     2.658773087651800 ] # a
- [     2.658773087651800,     0.000000000000000,     2.658773087651800 ] # b
- [     2.658773087651800,     2.658773087651800,     0.000000000000000 ] # c
points:
- symbol: Si # 1
  coordinates: [  0.000000000000000,  0.000000000000000,  0.000000000000000 ]
  mass: 28.085000
  magnetic_moment: 0.00000000
- symbol: Si # 2
  coordinates: [  0.250000000000000,  0.250000000000000,  0.250000000000000 ]
  mass: 28.085000
  magnetic_moment: 0.00000000

phonon:
- q-position: [    0.0000000,    0.0000000,    0.0000000 ]
  distance:    0.0000000
  band:
  - # 1
    frequency:   -0.0000005117
    eigenvector:
    - # atom 1
      - [ -0.20494712463911,  0.00000000000000 ]
      - [ -0.67658646579672,  0.00000000000000 ]
      - [ -0.01508079583003,  0.00000000000000 ]
    - # atom 2
      - [ -0.20494712463911,  0.00000000000000 ]
      - [ -0.67658646579672,  0.00000000000000 ]
      - [ -0.01508079583003,  0.00000000000000 ]
  - # 2
    frequency:   -0.0000005052
    eigenvector:
    - # atom 1
      - [  0.00000000000000,  0.00000000000000 ]
      - [  0.01575716560629,  0.00000000000000 ]
      - [ -0.70693119306765,  0.00000000000000 ]
    - # atom 2
      - [  0.00000000000000,  0.00000000000000 ]
      - [  0.01575716560629,  0.00000000000000 ]
      - [ -0.70693119306765,  0.00000000000000 ]
  - # 3
    frequency:   -0.0000004615
    eigenvector:
    - # atom 1
      - [ -0.67675451686868,  0.00000000000000 ]
      - [  0.20489623235375,  0.00000000000000 ]
      - [  0.00456704117312,  0.00000000000000 ]
    - # atom 2
      - [ -0.67675451686868,  0.00000000000000 ]
      - [  0.20489623235375,  0.00000000000000 ]
      - [  0.00456704117312,  0.00000000000000 ]
  - # 4
    frequency:   16.1982821506
    eigenvector:
    - # atom 1
      - [ -0.00000000000000,  0.00000000000000 ]
      - [ -0.45233409247213,  0.00000000000000 ]
      - [ -0.54350148922281,  0.00000000000000 ]
    - # atom 2
      - [  0.00000000000000,  0.00000000000000 ]
      - [  0.45233409247213,  0.00000000000000 ]
      - [  0.54350148922281,  0.00000000000000 ]
  - # 5
    frequency:   16.1982821506
    eigenvector:
    - # atom 1
      - [  0.70710678118655,  0.00000000000000 ]
      - [  0.00000000000000,  0.00000000000000 ]
      - [ -0.00000000000000,  0.00000000000000 ]
    - # atom 2
      - [ -0.70710678118655,  0.00000000000000 ]
      - [  0.00000000000000,  0.00000000000000 ]
      - [ -0.00000000000000,  0.00000000000000 ]
  - # 6
    frequency:   16.1982821506
    eigenvector:
    - # atom 1
      - [ -0.00000000000000,  0.00000000000000 ]
      - [ -0.54350148922281,  0.00000000000000 ]
      - [  0.45233409247213,  0.00000000000000 ]
    - # atom 2
      - [  0.00000000000000,  0.00000000000000 ]
      - [  0.54350148922281,  0.00000000000000 ]
      - [ -0.45233409247213,  0.00000000000000 ]

- q-position: [    0.0102041,    0.0000000,    0.0102041 ]
  distance:    0.0038379
  band:
  - # 1
    frequency:    0.1039609696
    eigenvector:
    - # atom 1
      - [  0.70710210967501,  0.00000000000000 ]
      - [ -0.00000000000004,  0.00000000000000 ]
      - [  0.00146607034591,  0.00211119181825 ]
    - # atom 2
      - [  0.70692078929616, -0.00003786204290 ]
      - [ -0.00000000000004,  0.00000000000000 ]
      - [  0.00146558136071, -0.01615079869980 ]
  - # 2
    frequency:    0.1039609696
    eigenvector:
    - # atom 1
      - [  0.00257030993318,  0.00000000000000 ]
      - [ -0.00000000000011, -0.00000000000015 ]
      - [ -0.40332156879030, -0.58079695733998 ]
    - # atom 2
      - [ -0.01242993628445,  0.01041599305543 ]
      - [ -0.00000000000011, -0.00000000000014 ]
      - [ -0.40318704708874, -0.58066962106907 ]
  - # 3
    frequency:    0.3221882185
    eigenvector:
    - # atom 1
      - [  0.00000000000004,  0.00000000000000 ]
      - [  0.70674622585879, -0.02257813620200 ]
      - [ -0.00000000000018, -0.00000000000000 ]
    - # atom 2
      - [  0.00000000000004,  0.00000000000000 ]
      - [  0.70674622585879, -0.02257813620200 ]
      - [ -0.00000000000018, -0.00000000000000 ]
  - # 4
    frequency:   16.1971553728
    eigenvector:
    - # atom 1
      - [ -0.12475126059331,  0.00000000000000 ]
      - [ -0.00000000000845, -0.00000000000034 ]
      - [  0.69408720720587,  0.05176940963087 ]
    - # atom 2
      - [  0.12337267931705,  0.01792516961541 ]
      - [  0.00000000000845,  0.00000000000034 ]
      - [ -0.69385570510093, -0.05497391009634 ]
  - # 5
    frequency:   16.1971553728
    eigenvector:
    - # atom 1
      - [ -0.69601517438945,  0.00000000000000 ]
      - [ -0.00000000000597,  0.00000000000006 ]
      - [ -0.12440569867831, -0.00927896308768 ]
    - # atom 2
      - [  0.69602266337528, -0.00321284303583 ]
      - [  0.00000000000597, -0.00000000000006 ]
      - [  0.12436420507230, -0.00869909215635 ]
  - # 6
    frequency:   16.1973251203
    eigenvector:
    - # atom 1
      - [ -0.00000000000737,  0.00000000000000 ]
      - [  0.70710675275545,  0.00020051844219 ]
      - [  0.00000000000727,  0.00000000000020 ]
    - # atom 2
      - [  0.00000000000736,  0.00000000000019 ]
      - [ -0.70710675275545, -0.00020051844219 ]
      - [ -0.00000000000727, -0.00000000000039 ]

- q-position: [    0.0204082,    0.0000000,    0.0204082 ]
  distance:    0.0076758
  band:
  - # 1
    frequency:    0.2078765727
    eigenvector:
    - # atom 1
      - [ -0.70696663450010,  0.00000000000000 ]
      - [ -0.00000000000001, -0.00000000000000 ]
      - [ -0.00379623741026,  0.01355604238435 ]
    - # atom 2
      - [ -0.70532271754001,  0.00019608491940 ]
      - [ -0.00000000000001, -0.00000000000000 ]
      - [ -0.00379116989588,  0.05005449733543 ]
  - # 2
    frequency:    0.2078765727
    eigenvector:
    - # atom 1
      - [ -0.01407756028584,  0.00000000000000 ]
      - [ -0.00000000000000,  0.00000000000003 ]
      - [  0.19064476593952, -0.68077631826927 ]
    - # atom 2
      - [ -0.04922252537544, -0.00984726704961 ]
      - [ -0.00000000000000,  0.00000000000003 ]
      - [  0.19039027840672, -0.67914042451877 ]
  - # 3
    frequency:    0.6442066058
    eigenvector:
    - # atom 1
      - [  0.00000000000001,  0.00000000000000 ]
      - [ -0.70533563422679, -0.05001642820009 ]
      - [ -0.00000000000003, -0.00000000000001 ]
    - # atom 2
      - [  0.00000000000001,  0.00000000000000 ]
      - [ -0.70533563422679, -0.05001642820009 ]
      - [ -0.00000000000003, -0.00000000000001 ]
  - # 4
    frequency:   16.1937784112
    eigenvector:
    - # atom 1
      - [ -0.05518095909715,  0.00000000000000 ]
      - [  0.00000000000135, -0.00000000000007 ]
      - [  0.70204543895915,  0.06393170879751 ]
    - # atom 2
      - [  0.05180507058307,  0.03626235886582 ]
      - [ -0.00000000000135,  0.00000000000007 ]
      - [ -0.70110829384114, -0.06669659885282 ]
  - # 5
    frequency:   16.1937784112
    eigenvector:
    - # atom 1
      - [ -0.70495039666144,  0.00000000000000 ]
      - [ -0.00000000000088,  0.00000000000000 ]
      - [ -0.05495356954902, -0.00500434218475 ]
    - # atom 2
      - [  0.70426786025583, -0.00283848587194 ]
      - [  0.00000000000088, -0.00000000000000 ]
      - [  0.05488021322967, -0.03141474501720 ]
  - # 6
    frequency:   16.1944512104
    eigenvector:
    - # atom 1
      - [ -0.00000000000077,  0.00000000000000 ]
      - [  0.70709463604261,  0.00414435516989 ]
      - [ -0.00000000000140, -0.00000000000020 ]
    - # atom 2
      - [  0.00000000000078, -0.00000000000007 ]
      - [ -0.70709463604261, -0.00414435516989 ]
      - [  0.00000000000140,  0.00000000000016 ]

- q-position: [    0.0306122,    0.0000000,    0.0306122 ]
  distance:    0.0115137
  band:
  - # 1
    frequency:    0.3117010816
    eigenvector:
    - # atom 1
      - [ -0.70710677825650,  0.00000000000000 ]
      - [  0.00000000000002, -0.00000000000000 ]
      - [  0.00001223886507,  0.00006319752513 ]
    - # atom 2
      - [ -0.70497614271548, -0.00000094829172 ]
      - [  0.00000000000002, -0.00000000000000 ]
      - [  0.00001220207200,  0.05485105333737 ]
  - # 2
    frequency:    0.3117010816
    eigenvector:
    - # atom 1
      - [  0.00006437170963,  0.00000000000000 ]
      - [  0.00000000000001, -0.00000000000000 ]
      - [  0.13444080482297,  0.69420866161035 ]
    - # atom 2
      - [  0.05385285214707, -0.01041674213639 ]
      - [  0.00000000000001, -0.00000000000000 ]
      - [  0.13403664232109,  0.69211671003825 ]
  - # 3
    frequency:    0.9658855368
    eigenvector:
    - # atom 1
      - [ -0.00000000000002,  0.00000000000000 ]
      - [ -0.70681987039797,  0.02014127132535 ]
      - [  0.00000000000000,  0.00000000000001 ]
    - # atom 2
      - [ -0.00000000000002, -0.00000000000000 ]
      - [ -0.70681987039797,  0.02014127132535 ]
      - [  0.00000000000000,  0.00000000000001 ]
  - # 4
    frequency:   16.1881613820
    eigenvector:
    - # atom 1
      - [  0.70364488738802,  0.00000000000000 ]
      - [  0.00000000000087, -0.00000000000000 ]
      - [  0.06987520202223, -0.00115264697740 ]
    - # atom 2
      - [ -0.70144024643210,  0.00541407024565 ]
      - [ -0.00000000000087,  0.00000000000000 ]
      - [ -0.06966513978327,  0.05566899341312 ]
  - # 5
    frequency:   16.1881613820
    eigenvector:
    - # atom 1
      - [  0.06988470828945,  0.00000000000000 ]
      - [ -0.00000000000181,  0.00000000000001 ]
      - [ -0.70354917208072,  0.01160560260552 ]
    - # atom 2
      - [ -0.07057384274722, -0.05451239536603 ]
      - [  0.00000000000181, -0.00000000000001 ]
      - [  0.70143412825932, -0.00615590646692 ]
  - # 6
    frequency:   16.1896519753
    eigenvector:
    - # atom 1
      - [  0.00000000000069,  0.00000000000000 ]
      - [ -0.70710677962868,  0.00004693787262 ]
      - [  0.00000000000189, -0.00000000000002 ]
    - # atom 2
      - [ -0.00000000000069,  0.00000000000015 ]
      - [  0.70710677962868, -0.00004693787262 ]
      - [ -0.00000000000188,  0.00000000000007 ]

- q-position: [    0.0408163,    0.0000000,    0.0408163 ]
  distance:    0.0153516
  band:
  - # 1
    frequency:    0.4153880482
    eigenvector:
    - # atom 1
      - [  0.68899556231828,  0.00000000000000 ]
      - [  0.00000000000001,  0.00000000000000 ]
      - [  0.15897267391184, -0.00357827542803 ]
    - # atom 2
      - [  0.68493882250579, -0.01642430296257 ]
      - [  0.00000000000001,  0.00000000000000 ]
      - [  0.15812195711815, -0.07474288175940 ]
  - # 2
    frequency:    0.4153880482
    eigenvector:
    - # atom 1
      - [  0.15901294005746,  0.00000000000000 ]
      - [ -0.00000000000001, -0.00000000000000 ]
      - [ -0.68882109101024,  0.01550449850041 ]
    - # atom 2
      - [  0.15976385906257,  0.07116572935065 ]
      - [ -0.00000000000001, -0.00000000000000 ]
      - [ -0.68513497530525, -0.00100693440899 ]
  - # 3
    frequency:    1.2870557972
    eigenvector:
    - # atom 1
      - [ -0.00000000000000,  0.00000000000000 ]
      - [  0.70335950164287,  0.07270083526818 ]
      - [ -0.00000000000002,  0.00000000000000 ]
    - # atom 2
      - [ -0.00000000000000,  0.00000000000000 ]
      - [  0.70335950164287,  0.07270083526818 ]
      - [ -0.00000000000002,  0.00000000000000 ]
  - # 4
    frequency:   16.1803211451
    eigenvector:
    - # atom 1
      - [  0.65479537851193,  0.00000000000000 ]
      - [ -0.00000000000011,  0.00000000000000 ]
      - [ -0.26579359113238,  0.02442906450040 ]
    - # atom 2
      - [ -0.65381524107919, -0.02746053368070 ]
      - [  0.00000000000011, -0.00000000000000 ]
      - [  0.26437123931513,  0.04335201777900 ]
  - # 5
    frequency:   16.1803211451
    eigenvector:
    - # atom 1
      - [  0.26691386677993,  0.00000000000000 ]
      - [  0.00000000000069, -0.00000000000001 ]
      - [  0.65204710872168, -0.05992958975571 ]
    - # atom 2
      - [ -0.25929387890591,  0.06736641584987 ]
      - [ -0.00000000000069,  0.00000000000001 ]
      - [ -0.64855778309094,  0.08718516140737 ]
  - # 6
    frequency:   16.1829133784
    eigenvector:
    - # atom 1
      - [ -0.00000000000016,  0.00000000000000 ]
      - [  0.70710322686675, -0.00224199790986 ]
      - [ -0.00000000000068,  0.00000000000006 ]
    - # atom 2
      - [  0.00000000000016, -0.00000000000007 ]
      - [ -0.70710322686675,  0.00224199790986 ]
      - [  0.00000000000067, -0.00000000000007 ]

- q-position: [    0.0510204,    0.0000000,    0.0510204 ]
  distance:    0.0191895
  band:
  - # 1
    frequency:    0.5188899463
    eigenvector:
    - # atom 1
      - [ -0.70575585856223,  0.00000000000000 ]
      - [ -0.00000000000001, -0.00000000000000 ]
      - [ -0.02163350949632,  0.03795601891614 ]
    - # atom 2
      - [ -0.69494279986187,  0.00279403142338 ]
      - [ -0.00000000000001, -0.00000000000000 ]
      - [ -0.02145232205456,  0.12878857164758 ]
  - # 2
    frequency:    0.5188899463
    eigenvector:
    - # atom 1
      - [ -0.04368830627398,  0.00000000000000 ]
      - [  0.00000000000000, -0.00000000000000 ]
      - [  0.34947511978463, -0.61315452583050 ]
    - # atom 2
      - [ -0.12251311462972, -0.04513574029835 ]
      - [  0.00000000000000, -0.00000000000000 ]
      - [  0.34654815581128, -0.60237669061414 ]
  - # 3
    frequency:    1.6075487890
    eigenvector:
    - # atom 1
      - [ -0.00000000000001,  0.00000000000000 ]
      - [  0.70695844668499,  0.01448290926410 ]
      - [ -0.00000000000000,  0.00000000000000 ]
    - # atom 2
      - [ -0.00000000000001,  0.00000000000000 ]
      - [  0.70695844668499,  0.01448290926410 ]
      - [ -0.00000000000000,  0.00000000000000 ]
  - # 4
    frequency:   16.1702813036
    eigenvector:
    - # atom 1
      - [  0.50969915207888,  0.00000000000000 ]
      - [ -0.00000000000041,  0.00000000000003 ]
      - [  0.47556894356148, -0.11849453274260 ]
    - # atom 2
      - [ -0.49012634381648,  0.06142112875955 ]
      - [  0.00000000000041, -0.00000000000003 ]
      - [ -0.47158590418087,  0.18333124942821 ]
  - # 5
    frequency:   16.1702813036
    eigenvector:
    - # atom 1
      - [ -0.49010894132843,  0.00000000000000 ]
      - [ -0.00000000000026,  0.00000000000003 ]
      - [  0.49457797409557, -0.12323089372984 ]
    - # atom 2
      - [  0.50191975751581,  0.06387620100057 ]
      - [  0.00000000000026, -0.00000000000003 ]
      - [ -0.49043572810941,  0.05889978399618 ]
  - # 6
    frequency:   16.1742158506
    eigenvector:
    - # atom 1
      - [  0.00000000000011,  0.00000000000000 ]
      - [  0.70710666877360,  0.00039871781956 ]
      - [  0.00000000000047, -0.00000000000007 ]
    - # atom 2
      - [ -0.00000000000010,  0.00000000000006 ]
      - [ -0.70710666877360, -0.00039871781956 ]
      - [ -0.00000000000047,  0.00000000000008 ]

- q-position: [    0.0612245,    0.0000000,    0.0612245 ]
  distance:    0.0230273
  band:
  - # 1
    frequency:    0.6221578202
    eigenvector:
    - # atom 1
      - [  0.69461381338167,  0.00000000000000 ]
      - [  0.00000000000000,  0.00000000000000 ]
      - [  0.11777173232094, -0.06034458820391 ]
    - # atom 2
      - [  0.67686641732336, -0.01825406819769 ]
      - [  0.00000000000000,  0.00000000000000 ]
      - [  0.11634848485524, -0.16727723146313 ]
  - # 2
    frequency:    0.6221578202
    eigenvector:
    - # atom 1
      - [  0.13233159206847,  0.00000000000000 ]
      - [  0.00000000000000,  0.00000000000000 ]
      - [ -0.61818852790412,  0.31675115423368 ]
    - # atom 2
      - [  0.17982734047769,  0.09581633321516 ]
      - [  0.00000000000001,  0.00000000000000 ]
      - [ -0.61071784509826,  0.29241250244212 ]
  - # 3
    frequency:    1.9271967346
    eigenvector:
    - # atom 1
      - [ -0.00000000000000,  0.00000000000000 ]
      - [  0.70612521980495,  0.03724478427121 ]
      - [  0.00000000000000, -0.00000000000000 ]
    - # atom 2
      - [ -0.00000000000001, -0.00000000000000 ]
      - [  0.70612521980495,  0.03724478427121 ]
      - [  0.00000000000000, -0.00000000000000 ]
  - # 4
    frequency:   16.1580722028
    eigenvector:
    - # atom 1
      - [ -0.69161632392878,  0.00000000000000 ]
      - [ -0.00000000000008,  0.00000000000000 ]
      - [ -0.14715235005090, -0.00361197310958 ]
    - # atom 2
      - [  0.68381812007543, -0.02280792665900 ]
      - [  0.00000000000008, -0.00000000000000 ]
      - [  0.14537404378712, -0.10362897534473 ]
  - # 5
    frequency:   16.1580722028
    eigenvector:
    - # atom 1
      - [  0.14719667277234,  0.00000000000000 ]
      - [ -0.00000000000028,  0.00000000000001 ]
      - [ -0.69140806978084, -0.01697116868966 ]
    - # atom 2
      - [ -0.14278737903177, -0.10716502007304 ]
      - [  0.00000000000027, -0.00000000000001 ]
      - [  0.68305254368226,  0.03958087203660 ]
  - # 6
    frequency:   16.1635343715
    eigenvector:
    - # atom 1
      - [ -0.00000000000002,  0.00000000000000 ]
      - [  0.70704281956812, -0.00951058868654 ]
      - [ -0.00000000000029, -0.00000000000002 ]
    - # atom 2
      - [  0.00000000000002, -0.00000000000004 ]
      - [ -0.70704281956812,  0.00951058868654 ]
      - [  0.00000000000028,  0.00000000000001 ]

- q-position: [    0.0714286,    0.0000000,    0.0714286 ]
  distance:    0.0268652
  band:
  - # 1
    frequency:    0.7251409373
    eigenvector:
    - # atom 1
      - [ -0.70704311455883,  0.00000000000000 ]
      - [ -0.00000000000000, -0.00000000000000 ]
      - [ -0.00287059325196, -0.00904399520868 ]
    - # atom 2
      - [ -0.69702102058271,  0.00051912418537 ]
      - [ -0.00000000000000, -0.00000000000000 ]
      - [ -0.00282326330659,  0.11896830065282 ]
  - # 2
    frequency:    0.7251409373
    eigenvector:
    - # atom 1
      - [  0.00948863293382,  0.00000000000000 ]
      - [ -0.00000000000000,  0.00000000000000 ]
      - [ -0.21390153962661, -0.67391104545809 ]
    - # atom 2
      - [ -0.11253932025194,  0.03868240909186 ]
      - [ -0.00000000000000,  0.00000000000000 ]
      - [ -0.21037476056191, -0.66451563769606 ]
  - # 3
    frequency:    2.2458328798
    eigenvector:
    - # atom 1
      - [ -0.00000000000000,  0.00000000000000 ]
      - [  0.70607026404201,  0.03827247360239 ]
      - [  0.00000000000000, -0.00000000000000 ]
    - # atom 2
      - [ -0.00000000000000, -0.00000000000000 ]
      - [  0.70607026404201,  0.03827247360239 ]
      - [  0.00000000000000, -0.00000000000000 ]
  - # 4
    frequency:   16.1437309277
    eigenvector:
    - # atom 1
      - [  0.66558882765487,  0.00000000000000 ]
      - [  0.00000000000007,  0.00000000000002 ]
      - [ -0.23616627055727, -0.03488560092769 ]
    - # atom 2
      - [ -0.64830590469873, -0.04270881035893 ]
      - [ -0.00000000000007, -0.00000000000002 ]
      - [  0.23227239368176,  0.15467691031254 ]
  - # 5
    frequency:   16.1437309277
    eigenvector:
    - # atom 1
      - [  0.23872895195392,  0.00000000000000 ]
      - [ -0.00000000000007, -0.00000000000004 ]
      - [  0.65844393763426,  0.09726288342261 ]
    - # atom 2
      - [ -0.25238204851984,  0.11907440125997 ]
      - [  0.00000000000007,  0.00000000000004 ]
      - [ -0.64758760486276, -0.05248697531415 ]
  - # 6
    frequency:   16.1508385734
    eigenvector:
    - # atom 1
      - [ -0.00000000000004,  0.00000000000000 ]
      - [  0.70644206639984,  0.03065300671589 ]
      - [  0.00000000000009, -0.00000000000003 ]
    - # atom 2
      - [  0.00000000000005,  0.00000000000002 ]
      - [ -0.70644206639984, -0.03065300671589 ]
      - [ -0.00000000000009,  0.00000000000002 ]

- q-position: [    0.0816327,    0.0000000,    0.0816327 ]
  distance:    0.0307031
  band:
  - # 1
    frequency:    0.8277864497
    eigenvector:
    - # atom 1
      - [ -0.23237636516183, -0.00000000000000 ]
      - [ -0.00000000000000, -0.00000000000000 ]
      - [ -0.00773314831097,  0.66778845702166 ]
    - # atom 2
      - [ -0.08933164777221,  0.00159838274082 ]
      - [ -0.00000000000000, -0.00000000000000 ]
      - [ -0.00756615856385,  0.70139864208844 ]
  - # 2
    frequency:    0.8277864497
    eigenvector:
    - # atom 1
      - [ -0.66783323136407,  0.00000000000000 ]
      - [ -0.00000000000000,  0.00000000000000 ]
      - [  0.00269079286769, -0.23236078567514 ]
    - # atom 2
      - [ -0.70143922941186, -0.00055616635113 ]
      - [ -0.00000000000000,  0.00000000000000 ]
      - [  0.00263268783692, -0.08930715019436 ]
  - # 3
    frequency:    2.5632916963
    eigenvector:
    - # atom 1
      - [ -0.00000000000000, -0.00000000000000 ]
      - [  0.70533528596673,  0.05002133914878 ]
      - [  0.00000000000000,  0.00000000000000 ]
    - # atom 2
      - [ -0.00000000000000, -0.00000000000000 ]
      - [  0.70533528596673,  0.05002133914878 ]
      - [  0.00000000000000,  0.00000000000000 ]
  - # 4
    frequency:   16.1273012989
    eigenvector:
    - # atom 1
      - [  0.64445117626534,  0.00000000000000 ]
      - [ -0.00000000000002, -0.00000000000000 ]
      - [  0.26580298953480, -0.11845443075115 ]
    - # atom 2
      - [ -0.60605125883192,  0.05493944947714 ]
      - [  0.00000000000002,  0.00000000000000 ]
      - [ -0.26006323488103,  0.24909966363406 ]
  - # 5
    frequency:   16.1273012989
    eigenvector:
    - # atom 1
      - [ -0.29100288900665,  0.00000000000000 ]
      - [ -0.00000000000008, -0.00000000000001 ]
      - [  0.58864380984422, -0.26232762668441 ]
    - # atom 2
      - [  0.33894008575733,  0.12166818329458 ]
      - [  0.00000000000008,  0.00000000000001 ]
      - [ -0.57593262456793,  0.19651484269363 ]
  - # 6
    frequency:   16.1360928674
    eigenvector:
    - # atom 1
      - [ -0.00000000000002,  0.00000000000000 ]
      - [  0.70704823281309,  0.00909925688653 ]
      - [  0.00000000000007, -0.00000000000004 ]
    - # atom 2
      - [  0.00000000000003,  0.00000000000001 ]
      - [ -0.70704823281309, -0.00909925688653 ]
      - [ -0.00000000000006,  0.00000000000004 ]

- q-position: [    0.0918367,    0.0000000,    0.0918367 ]
  distance:    0.0345410
  band:
  - # 1
    frequency:    0.9300390636
    eigenvector:
    - # atom 1
      - [  0.04747767381056,  0.00000000000000 ]
      - [ -0.00000000000000, -0.00000000000000 ]
      - [  0.67369339500774,  0.20948288715904 ]
    - # atom 2
      - [  0.09489015825181, -0.15666354291395 ]
      - [ -0.00000000000000, -0.00000000000000 ]
      - [  0.65522463689845,  0.19269942239118 ]
  - # 2
    frequency:    0.9300390636
    eigenvector:
    - # atom 1
      - [  0.70551107042309,  0.00000000000000 ]
      - [  0.00000000000000,  0.00000000000000 ]
      - [ -0.04533648952854, -0.01409724184692 ]
    - # atom 2
      - [  0.68289182364252,  0.01054274114227 ]
      - [  0.00000000000000,  0.00000000000000 ]
      - [ -0.04409362643261, -0.17777333860685 ]
  - # 3
    frequency:    2.8794090814
    eigenvector:
    - # atom 1
      - [ -0.00000000000000,  0.00000000000000 ]
      - [  0.70655599112225,  0.02790396762558 ]
      - [  0.00000000000000, -0.00000000000000 ]
    - # atom 2
      - [ -0.00000000000000, -0.00000000000000 ]
      - [  0.70655599112225,  0.02790396762558 ]
      - [  0.00000000000000,  0.00000000000000 ]
  - # 4
    frequency:   16.1088338667
    eigenvector:
    - # atom 1
      - [ -0.08218647815933,  0.00000000000000 ]
      - [ -0.00000000000003,  0.00000000000002 ]
      - [  0.70213296524172, -0.01595875711443 ]
    - # atom 2
      - [  0.08364452012968,  0.16327700218908 ]
      - [  0.00000000000003, -0.00000000000002 ]
      - [ -0.68288455937682, -0.00359073434641 ]
  - # 5
    frequency:   16.1088338667
    eigenvector:
    - # atom 1
      - [ -0.70231430485771,  0.00000000000000 ]
      - [  0.00000000000000, -0.00000000000000 ]
      - [ -0.08216525736931,  0.00186753143708 ]
    - # atom 2
      - [  0.68262664396800, -0.01910706030265 ]
      - [ -0.00000000000000,  0.00000000000000 ]
      - [  0.07991276346840, -0.16513550625598 ]
  - # 6
    frequency:   16.1192565894
    eigenvector:
    - # atom 1
      - [  0.00000000000000,  0.00000000000000 ]
      - [  0.41112243775665, -0.57530717114689 ]
      - [  0.00000000000003, -0.00000000000001 ]
    - # atom 2
      - [  0.00000000000000,  0.00000000000001 ]
      - [ -0.41112243775665,  0.57530717114689 ]
      - [ -0.00000000000003,  0.00000000000001 ]

- q-position: [    0.1020408,    0.0000000,    0.1020408 ]
  distance:    0.0383789
  band:
  - # 1
    frequency:    1.0318407205
    eigenvector:
    - # atom 1
      - [  0.54619680574260, -0.00000000000000 ]
      - [ -0.00000000000000, -0.00000000000000 ]
      - [  0.05848876667775, -0.44525061883068 ]
    - # atom 2
      - [  0.41259699868066, -0.01511321222017 ]
      - [ -0.00000000000000, -0.00000000000000 ]
      - [  0.05650244812282, -0.57126419531792 ]
  - # 2
    frequency:    1.0318407205
    eigenvector:
    - # atom 1
      - [ -0.44907577244446,  0.00000000000000 ]
      - [ -0.00000000000000, -0.00000000000000 ]
      - [  0.07113805618440, -0.54154439113125 ]
    - # atom 2
      - [ -0.57375728283796, -0.01838172697278 ]
      - [ -0.00000000000000, -0.00000000000000 ]
      - [  0.06872215909875, -0.40711418220532 ]
  - # 3
    frequency:    3.1940225574
    eigenvector:
    - # atom 1
      - [ -0.00000000000000, -0.00000000000000 ]
      - [  0.69416385223074,  0.13467199507015 ]
      - [  0.00000000000000, -0.00000000000000 ]
    - # atom 2
      - [ -0.00000000000000, -0.00000000000000 ]
      - [  0.69416385223074,  0.13467199507015 ]
      - [  0.00000000000000, -0.00000000000000 ]
  - # 4
    frequency:   16.0883859011
    eigenvector:
    - # atom 1
      - [ -0.12141250911503,  0.00000000000000 ]
      - [ -0.00000000000000, -0.00000000000003 ]
      - [  0.69657096383299,  0.00692061956589 ]
    - # atom 2
      - [  0.11550100282948,  0.17999054178760 ]
      - [  0.00000000000000,  0.00000000000003 ]
      - [ -0.67291493706279, -0.03805799114730 ]
  - # 5
    frequency:   16.0883859011
    eigenvector:
    - # atom 1
      - [  0.69660534209148,  0.00000000000000 ]
      - [  0.00000000000003, -0.00000000000001 ]
      - [  0.12140651727091,  0.00120620634864 ]
    - # atom 2
      - [ -0.67325982565322,  0.03137085229607 ]
      - [ -0.00000000000003,  0.00000000000001 ]
      - [ -0.11728346883543,  0.17883418220670 ]
  - # 6
    frequency:   16.1002841682
    eigenvector:
    - # atom 1
      - [ -0.00000000000003,  0.00000000000000 ]
      - [  0.70710623475450, -0.00087907412394 ]
      - [ -0.00000000000000, -0.00000000000003 ]
    - # atom 2
      - [  0.00000000000004, -0.00000000000000 ]
      - [ -0.70710623475450,  0.00087907412394 ]
      - [  0.00000000000000,  0.00000000000003 ]

- q-position: [    0.1122449,    0.0000000,    0.1122449 ]
  distance:    0.0422168
  band:
  - # 1
    frequency:    1.1331302900
    eigenvector:
    - # atom 1
      - [ -0.70708365375648,  0.00000000000000 ]
      - [ -0.00000000000000, -0.00000000000000 ]
      - [ -0.00570661172270,  0.00037572999202 ]
    - # atom 2
      - [ -0.67781165629759,  0.00162205367067 ]
      - [ -0.00000000000000, -0.00000000000000 ]
      - [ -0.00547123013984,  0.20134247731107 ]
  - # 2
    frequency:    1.1331302900
    eigenvector:
    - # atom 1
      - [  0.00571896759744,  0.00000000000000 ]
      - [  0.00000000000000,  0.00000000000000 ]
      - [ -0.70555599392849,  0.04645463207482 ]
    - # atom 2
      - [  0.01868739272029,  0.20054802138719 ]
      - [  0.00000000000000,  0.00000000000000 ]
      - [ -0.67645380602529,  0.04291294425817 ]
  - # 3
    frequency:    3.5069714681
    eigenvector:
    - # atom 1
      - [ -0.00000000000000,  0.00000000000000 ]
      - [  0.69308797941474,  0.14010372154513 ]
      - [  0.00000000000000,  0.00000000000000 ]
    - # atom 2
      - [ -0.00000000000000, -0.00000000000000 ]
      - [  0.69308797941474,  0.14010372154513 ]
      - [  0.00000000000000,  0.00000000000000 ]
  - # 4
    frequency:   16.0660213780
    eigenvector:
    - # atom 1
      - [  0.06440216946557,  0.00000000000000 ]
      - [ -0.00000000000014, -0.00000000000001 ]
      - [ -0.70415798755149, -0.00372681305702 ]
    - # atom 2
      - [ -0.06068644875114, -0.20015065049784 ]
      - [  0.00000000000014,  0.00000000000001 ]
      - [  0.67511346345474,  0.02187883692998 ]
  - # 5
    frequency:   16.0660213780
    eigenvector:
    - # atom 1
      - [  0.70416784971208,  0.00000000000000 ]
      - [  0.00000000000004,  0.00000000000000 ]
      - [  0.06440126748668,  0.00034084891289 ]
    - # atom 2
      - [ -0.67521980210366,  0.01830548798454 ]
      - [ -0.00000000000004, -0.00000000000000 ]
      - [ -0.06174489746965,  0.19982666386946 ]
  - # 6
    frequency:   16.0791253106
    eigenvector:
    - # atom 1
      - [ -0.00000000000003,  0.00000000000000 ]
      - [  0.70705718080525, -0.00837514607251 ]
      - [ -0.00000000000015,  0.00000000000001 ]
    - # atom 2
      - [  0.00000000000002, -0.00000000000004 ]
      - [ -0.70705718080525,  0.00837514607251 ]
      - [  0.00000000000014, -0.00000000000002 ]

- q-position: [    0.1224490,    0.0000000,    0.1224490 ]
  distance:    0.0460547
  band:
  - # 1
    frequency:    1.2338432776
    eigenvector:
    - # atom 1
      - [  0.04668226966739,  0.00000000000000 ]
      - [ -0.00000000000000,  0.00000000000000 ]
      - [  0.21867046862321,  0.67082336859326 ]
    - # atom 2
      - [  0.25238840357065, -0.06780472886047 ]
      - [ -0.00000000000000,  0.00000000000000 ]
      - [  0.20789250249119,  0.62328430101773 ]
  - # 2
    frequency:    1.2338432776