   2    8
1 1
    15.375214549848403     0.000000000000001     0.000000000000000
    -0.000000000000000    15.375214549848401    -0.000000000000001
     0.000000000000000    -0.000000000000000    15.375214549848401
1 2
     1.736495184572900     0.000000000000000     0.000000000000000
    -0.000000000000000    -1.017947556022390     0.000000000000000
     0.000000000000000    -0.000000000000000    -1.017947556022390
1 3
    -1.017947556022390     0.000000000000000    -0.000000000000000
     0.000000000000000     1.736495184572900    -0.000000000000000
    -0.000000000000000     0.000000000000000    -1.017947556022390
1 4
    -1.017947556022390    -0.000000000000000    -0.000000000000000
     0.000000000000000    -1.017947556022390    -0.000000000000000
    -0.000000000000000    -0.000000000000000     1.736495184572900
1 5
    -3.768953655594138    -3.036283408765752    -3.036283408765752
    -3.036283408765751    -3.768953655594137    -3.036283408765751
    -3.036283408765752    -3.036283408765751    -3.768953655594138
1 6
    -3.768953655594138     3.036283408765752     3.036283408765752
     3.036283408765751    -3.768953655594137    -3.036283408765751
     3.036283408765751    -3.036283408765751    -3.768953655594137
1 7
    -3.768953655594138     3.036283408765751    -3.036283408765752
     3.036283408765751    -3.768953655594137     3.036283408765752
    -3.036283408765751     3.036283408765752    -3.768953655594138
1 8
    -3.768953655594138    -3.036283408765752     3.036283408765752
    -3.036283408765751    -3.768953655594137     3.036283408765751
     3.036283408765751     3.036283408765751    -3.768953655594137
5 1
    -3.768953655594137    -3.036283408765751    -3.036283408765752
    -3.036283408765751    -3.768953655594138    -3.036283408765752
    -3.036283408765752    -3.036283408765751    -3.768953655594138
5 2
    -3.768953655594137     3.036283408765751     3.036283408765751
     3.036283408765752    -3.768953655594138    -3.036283408765752
     3.036283408765751    -3.036283408765752    -3.768953655594137
5 3
    -3.768953655594137     3.036283408765751    -3.036283408765752
     3.036283408765752    -3.768953655594138     3.036283408765752
    -3.036283408765752     3.036283408765751    -3.768953655594137
5 4
    -3.768953655594137    -3.036283408765751     3.036283408765751
    -3.036283408765752    -3.768953655594138     3.036283408765752
     3.036283408765751     3.036283408765751    -3.768953655594137
5 5
    15.375214549848401    -0.000000000000002     0.000000000000002
    -0.000000000000003    15.375214549848403     0.000000000000001
     0.000000000000001     0.000000000000001    15.375214549848401
5 6
     1.736495184572900    -0.000000000000000     0.000000000000000
    -0.000000000000000    -1.017947556022390    -0.000000000000000
     0.000000000000000    -0.000000000000000    -1.017947556022390
5 7
    -1.017947556022390     0.000000000000000    -0.000000000000000
    -0.000000000000000     1.736495184572900     0.000000000000000
    -0.000000000000000     0.000000000000000    -1.017947556022390
5 8
    -1.017947556022390     0.000000000000000    -0.000000000000000
     0.000000000000000    -1.017947556022390     0.000000000000000
     0.000000000000000     0.000000000000000     1.736495184572900