   2    8
1 1
    15.358272106896008     0.000000000000001     0.000000000000000
     0.000000000000000    15.358272106896004    -0.000000000000001
    -0.000000000000000    -0.000000000000000    15.358272106896004
1 2
     1.758559571596880     0.000000000000000     0.000000000000000
    -0.000000000000000    -0.998709666594653     0.000000000000000
     0.000000000000000    -0.000000000000000    -0.998709666594653
1 3
    -0.998709666594654     0.000000000000000    -0.000000000000000
     0.000000000000000     1.758559571596880    -0.000000000000000
    -0.000000000000000     0.000000000000000    -0.998709666594653
1 4
    -0.998709666594654    -0.000000000000000    -0.000000000000000
     0.000000000000000    -0.998709666594653    -0.000000000000000
    -0.000000000000000    -0.000000000000000     1.758559571596880
1 5
    -3.779853086325890    -3.048361341707535    -3.048361341707535
    -3.048361341707535    -3.779853086325890    -3.048361341707534
    -3.048361341707535    -3.048361341707535    -3.779853086325890
1 6
    -3.779853086325890     3.048361341707535     3.048361341707535
     3.048361341707534    -3.779853086325890    -3.048361341707535
     3.048361341707535    -3.048361341707535    -3.779853086325890
1 7
    -3.779853086325890     3.048361341707536    -3.048361341707535
     3.048361341707535    -3.779853086325890     3.048361341707535
    -3.048361341707535     3.048361341707535    -3.779853086325890
1 8
    -3.779853086325891    -3.048361341707535     3.048361341707535
    -3.048361341707535    -3.779853086325890     3.048361341707535
     3.048361341707535     3.048361341707535    -3.779853086325890
5 1
    -3.779853086325890    -3.048361341707535    -3.048361341707535
    -3.048361341707536    -3.779853086325890    -3.048361341707535
    -3.048361341707535    -3.048361341707535    -3.779853086325890
5 2
    -3.779853086325891     3.048361341707535     3.048361341707534
     3.048361341707535    -3.779853086325890    -3.048361341707535
     3.048361341707535    -3.048361341707535    -3.779853086325890
5 3
    -3.779853086325890     3.048361341707535    -3.048361341707535
     3.048361341707535    -3.779853086325891     3.048361341707535
    -3.048361341707536     3.048361341707535    -3.779853086325891
5 4
    -3.779853086325890    -3.048361341707534     3.048361341707535
    -3.048361341707535    -3.779853086325890     3.048361341707535
     3.048361341707534     3.048361341707535    -3.779853086325890
5 5
    15.358272106896004    -0.000000000000002     0.000000000000002
    -0.000000000000003    15.358272106896008     0.000000000000001
     0.000000000000001     0.000000000000001    15.358272106896004
5 6
     1.758559571596880    -0.000000000000000     0.000000000000000
    -0.000000000000000    -0.998709666594654    -0.000000000000000
     0.000000000000000    -0.000000000000000    -0.998709666594653
5 7
    -0.998709666594653     0.000000000000000    -0.000000000000000
    -0.000000000000000     1.758559571596880     0.000000000000000
    -0.000000000000000     0.000000000000000    -0.998709666594653
5 8
    -0.998709666594653     0.000000000000000    -0.000000000000000
     0.000000000000000    -0.998709666594654     0.000000000000000
     0.000000000000000     0.000000000000000     1.758559571596880