8    
1    

1    
  0.0100000000000000  -0.0000000000000000  -0.0000000000000000
  -0.1535827211    0.0000000025   -0.0000000075
  -0.0175855957    0.0000000074   -0.0000000016
   0.0099870968    0.0000000048    0.0000000031
   0.0099870965   -0.0000000067    0.0000000012
   0.0379674813    0.0308491726    0.0308491743
   0.0379674792   -0.0308491724   -0.0308491729
   0.0376295864   -0.0301180585    0.0301180548
   0.0376295766    0.0301180504   -0.0301180514
