8    
1    

1    
  0.0100000000000000  -0.0000000000000000  -0.0000000000000000
  -0.1537521455   -0.0000000020   -0.0000000015
  -0.0173649518    0.0000000045   -0.0000000002
   0.0101794752    0.0000000002   -0.0000000050
   0.0101794760   -0.0000000037    0.0000000004
   0.0378503580    0.0307202674    0.0307202667
   0.0378503618   -0.0307202699   -0.0307202657
   0.0375287133   -0.0300053952    0.0300054072
   0.0375287131    0.0300053988   -0.0300054018
