phonopy:
  version: "2.38.2"
  frequency_unit_conversion_factor: 15.633304
  symmetry_tolerance: 1.00000e-05

magnetic_space_group:
  uni_number: 1631
  msg_type: 2

supercell_matrix:
- [  -1,   1,   1 ]
- [   1,  -1,   1 ]
- [   1,   1,  -1 ]

primitive_cell:
  lattice:
  - [     0.000000000000000,     2.658773087651800,     2.658773087651800 ] # a
  - [     2.658773087651800,     0.000000000000000,     2.658773087651800 ] # b
  - [     2.658773087651800,     2.658773087651800,     0.000000000000000 ] # c
  points:
  - symbol: Si # 1
    coordinates: [  0.000000000000000,  0.000000000000000,  0.000000000000000 ]
    mass: 28.085000
    magnetic_moment: 0.00000000
  - symbol: Si # 2
    coordinates: [  0.250000000000000,  0.250000000000000,  0.250000000000000 ]
    mass: 28.085000
    magnetic_moment: 0.00000000
  reciprocal_lattice: # without 2pi
  - [    -0.188056665054330,     0.188056665054330,     0.188056665054330 ] # a*
  - [     0.188056665054330,    -0.188056665054330,     0.188056665054330 ] # b*
  - [     0.188056665054330,     0.188056665054330,    -0.188056665054330 ] # c*

unit_cell:
  lattice:
  - [     0.000000000000000,     2.658773087651800,     2.658773087651800 ] # a
  - [     2.658773087651800,     0.000000000000000,     2.658773087651800 ] # b
  - [     2.658773087651800,     2.658773087651800,     0.000000000000000 ] # c
  points:
  - symbol: Si # 1
    coordinates: [  0.000000000000000,  0.000000000000000,  0.000000000000000 ]
    mass: 28.085000
    reduced_to: 1
    magnetic_moment: 0.00000000
  - symbol: Si # 2
    coordinates: [  0.250000000000000,  0.250000000000000,  0.250000000000000 ]
    mass: 28.085000
    reduced_to: 2
    magnetic_moment: 0.00000000

supercell:
  lattice:
  - [     5.317546175303599,     0.000000000000000,     0.000000000000000 ] # a
  - [     0.000000000000000,     5.317546175303599,    -0.000000000000000 ] # b
  - [    -0.000000000000000,    -0.000000000000000,     5.317546175303599 ] # c
  points:
  - symbol: Si # 1
    coordinates: [  0.000000000000000,  0.000000000000000,  0.000000000000000 ]
    mass: 28.085000
    reduced_to: 1
    magnetic_moment: 0.00000000
  - symbol: Si # 2
    coordinates: [  0.000000000000000,  0.500000000000000,  0.500000000000000 ]
    mass: 28.085000
    reduced_to: 1
    magnetic_moment: 0.00000000
  - symbol: Si # 3
    coordinates: [  0.500000000000000,  0.000000000000000,  0.500000000000000 ]
    mass: 28.085000
    reduced_to: 1
    magnetic_moment: 0.00000000
  - symbol: Si # 4
    coordinates: [  0.500000000000000,  0.500000000000000,  0.000000000000000 ]
    mass: 28.085000
    reduced_to: 1
    magnetic_moment: 0.00000000
  - symbol: Si # 5
    coordinates: [  0.250000000000000,  0.250000000000000,  0.250000000000000 ]
    mass: 28.085000
    reduced_to: 5
    magnetic_moment: 0.00000000
  - symbol: Si # 6
    coordinates: [  0.250000000000000,  0.750000000000000,  0.750000000000000 ]
    mass: 28.085000
    reduced_to: 5
    magnetic_moment: 0.00000000
  - symbol: Si # 7
    coordinates: [  0.750000000000000,  0.250000000000000,  0.750000000000000 ]
    mass: 28.085000
    reduced_to: 5
    magnetic_moment: 0.00000000
  - symbol: Si # 8
    coordinates: [  0.750000000000000,  0.750000000000000,  0.250000000000000 ]
    mass: 28.085000
    reduced_to: 5
    magnetic_moment: 0.00000000

displacements:
- atom:    1
  displacement:
    [   0.0100000000000000, -0.0000000000000000, -0.0000000000000000 ]
  forces:
  - [  -0.1535827210689600,  0.0000000024692878, -0.0000000075180022 ]
  - [  -0.0175855957159688,  0.0000000073552368, -0.0000000015908732 ]
  - [   0.0099870968212926,  0.0000000047893296,  0.0000000031490641 ]
  - [   0.0099870965106005, -0.0000000066979235,  0.0000000011879855 ]
  - [   0.0379674813425590,  0.0308491726158550,  0.0308491742944925 ]
  - [   0.0379674791601569, -0.0308491723882463, -0.0308491729166977 ]
  - [   0.0376295863871974, -0.0301180585439862,  0.0301180547854547 ]
  - [   0.0376295765631223,  0.0301180504004468, -0.0301180513914236 ]
