phonopy:
  version: "2.38.2"
  frequency_unit_conversion_factor: 15.633304
  symmetry_tolerance: 1.00000e-05

magnetic_space_group:
  uni_number: 1631
  msg_type: 2

supercell_matrix:
- [  -1,   1,   1 ]
- [   1,  -1,   1 ]
- [   1,   1,  -1 ]

primitive_cell:
  lattice:
  - [     0.000000000000000,     2.658773087651800,     2.658773087651800 ] # a
  - [     2.658773087651800,     0.000000000000000,     2.658773087651800 ] # b
  - [     2.658773087651800,     2.658773087651800,     0.000000000000000 ] # c
  points:
  - symbol: Si # 1
    coordinates: [  0.000000000000000,  0.000000000000000,  0.000000000000000 ]
    mass: 28.085000
    magnetic_moment: 0.00000000
  - symbol: Si # 2
    coordinates: [  0.250000000000000,  0.250000000000000,  0.250000000000000 ]
    mass: 28.085000
    magnetic_moment: 0.00000000
  reciprocal_lattice: # without 2pi
  - [    -0.188056665054330,     0.188056665054330,     0.188056665054330 ] # a*
  - [     0.188056665054330,    -0.188056665054330,     0.188056665054330 ] # b*
  - [     0.188056665054330,     0.188056665054330,    -0.188056665054330 ] # c*

unit_cell:
  lattice:
  - [     0.000000000000000,     2.658773087651800,     2.658773087651800 ] # a
  - [     2.658773087651800,     0.000000000000000,     2.658773087651800 ] # b
  - [     2.658773087651800,     2.658773087651800,     0.000000000000000 ] # c
  points:
  - symbol: Si # 1
    coordinates: [  0.000000000000000,  0.000000000000000,  0.000000000000000 ]
    mass: 28.085000
    reduced_to: 1
    magnetic_moment: 0.00000000
  - symbol: Si # 2
    coordinates: [  0.250000000000000,  0.250000000000000,  0.250000000000000 ]
    mass: 28.085000
    reduced_to: 2
    magnetic_moment: 0.00000000

supercell:
  lattice:
  - [     5.317546175303599,     0.000000000000000,     0.000000000000000 ] # a
  - [     0.000000000000000,     5.317546175303599,    -0.000000000000000 ] # b
  - [    -0.000000000000000,    -0.000000000000000,     5.317546175303599 ] # c
  points:
  - symbol: Si # 1
    coordinates: [  0.000000000000000,  0.000000000000000,  0.000000000000000 ]
    mass: 28.085000
    reduced_to: 1
    magnetic_moment: 0.00000000
  - symbol: Si # 2
    coordinates: [  1.000000000000000,  0.500000000000000,  0.500000000000000 ]
    mass: 28.085000
    reduced_to: 1
    magnetic_moment: 0.00000000
  - symbol: Si # 3
    coordinates: [  0.500000000000000,  0.000000000000000,  0.500000000000000 ]
    mass: 28.085000
    reduced_to: 1
    magnetic_moment: 0.00000000
  - symbol: Si # 4
    coordinates: [  0.500000000000000,  0.500000000000000,  0.000000000000000 ]
    mass: 28.085000
    reduced_to: 1
    magnetic_moment: 0.00000000
  - symbol: Si # 5
    coordinates: [  0.250000000000000,  0.250000000000000,  0.250000000000000 ]
    mass: 28.085000
    reduced_to: 5
    magnetic_moment: 0.00000000
  - symbol: Si # 6
    coordinates: [  0.250000000000000,  0.750000000000000,  0.750000000000000 ]
    mass: 28.085000
    reduced_to: 5
    magnetic_moment: 0.00000000
  - symbol: Si # 7
    coordinates: [  0.750000000000000,  0.250000000000000,  0.750000000000000 ]
    mass: 28.085000
    reduced_to: 5
    magnetic_moment: 0.00000000
  - symbol: Si # 8
    coordinates: [  0.750000000000000,  0.750000000000000,  0.250000000000000 ]
    mass: 28.085000
    reduced_to: 5
    magnetic_moment: 0.00000000

displacements:
- atom:    1
  displacement:
    [   0.0100000000000000, -0.0000000000000000, -0.0000000000000000 ]
  forces:
  - [  -0.1537521454984840, -0.0000000019588885, -0.0000000015369122 ]
  - [  -0.0173649518457290,  0.0000000044556444, -0.0000000001879524 ]
  - [   0.0101794751660773,  0.0000000001692874, -0.0000000050285245 ]
  - [   0.0101794759543705, -0.0000000037186856,  0.0000000003596376 ]
  - [   0.0378503579655449,  0.0307202673806396,  0.0307202666773020 ]
  - [   0.0378503618457278, -0.0307202699346101, -0.0307202657031655 ]
  - [   0.0375287132636439, -0.0300053952157332,  0.0300054071935395 ]
  - [   0.0375287131488489,  0.0300053988223458, -0.0300054017739244 ]
