# Thermal properties / unit cell (natom)

unit:
  temperature:   K
  free_energy:   kJ/mol
  entropy:       J/K/mol
  heat_capacity: J/K/mol

natom: 2    
cutoff_frequency: 0.00000
num_modes: 546750
num_integrated_modes: 546750

zero_point_energy:      12.3670680

thermal_properties:
- temperature:         0.0000000
  free_energy:        12.3670680
  entropy:             0.0000000
  heat_capacity:       0.0000000
  energy:             12.3670680

- temperature:        10.0000000
  free_energy:        12.3669813
  entropy:             0.0246192
  heat_capacity:       0.0634227
  energy:             12.3672275

- temperature:        20.0000000
  free_energy:        12.3661342
  entropy:             0.1815940
  heat_capacity:       0.5721456
  energy:             12.3697661

- temperature:        30.0000000
  free_energy:        12.3622577
  entropy:             0.6617492
  heat_capacity:       2.0688144
  energy:             12.3821102

- temperature:        40.0000000
  free_energy:        12.3515120
  entropy:             1.5511738
  heat_capacity:       4.2827306
  energy:             12.4135589

- temperature:        50.0000000
  free_energy:        12.3301738
  entropy:             2.7580814
  heat_capacity:       6.6044796
  energy:             12.4680779

- temperature:        60.0000000
  free_energy:        12.2957216
  entropy:             4.1550883
  heat_capacity:       8.7480681
  energy:             12.5450269

- temperature:        70.0000000
  free_energy:        12.2467465
  entropy:             5.6511255
  heat_capacity:      10.6801447
  energy:             12.6423253

- temperature:        80.0000000
  free_energy:        12.1825435
  entropy:             7.1946881
  heat_capacity:      12.4589285
  energy:             12.7581186

- temperature:        90.0000000
  free_energy:        12.1027804
  entropy:             8.7604112
  heat_capacity:      14.1509986
  energy:             12.8912174

- temperature:       100.0000000
  free_energy:        12.0072995
  entropy:            10.3370658
  heat_capacity:      15.8025125
  energy:             13.0410061

- temperature:       110.0000000
  free_energy:        11.8960187
  entropy:            11.9199091
  heat_capacity:      17.4357257
  energy:             13.2072087

- temperature:       120.0000000
  free_energy:        11.7688887
  entropy:            13.5065477
  heat_capacity:      19.0547332
  energy:             13.3896744

- temperature:       130.0000000
  free_energy:        11.6258815
  entropy:            15.0950200
  heat_capacity:      20.6528398
  energy:             13.5882341

- temperature:       140.0000000
  free_energy:        11.4669896
  entropy:            16.6830990
  heat_capacity:      22.2185903
  energy:             13.8026235

- temperature:       150.0000000
  free_energy:        11.2922295
  entropy:            18.2681847
  heat_capacity:      23.7397753
  energy:             14.0324572

- temperature:       160.0000000
  free_energy:        11.1016454
  entropy:            19.8474313
  heat_capacity:      25.2056704
  energy:             14.2772344

- temperature:       170.0000000
  free_energy:        10.8953101
  entropy:            21.4179320
  heat_capacity:      26.6080199
  energy:             14.5363585

- temperature:       180.0000000
  free_energy:        10.6733252
  entropy:            22.9768825
  heat_capacity:      27.9412471
  energy:             14.8091641

- temperature:       190.0000000
  free_energy:        10.4358196
  entropy:            24.5216995
  heat_capacity:      29.2022453
  energy:             15.0949425

- temperature:       200.0000000
  free_energy:        10.1829460
  entropy:            26.0500929
  heat_capacity:      30.3899836
  energy:             15.3929646

- temperature:       210.0000000
  free_energy:         9.9148790
  entropy:            27.5600989
  heat_capacity:      31.5050648
  energy:             15.7024998

- temperature:       220.0000000
  free_energy:         9.6318108
  entropy:            29.0500857
  heat_capacity:      32.5493071
  energy:             16.0228297

- temperature:       230.0000000
  free_energy:         9.3339484
  entropy:            30.5187400
  heat_capacity:      33.5253836
  energy:             16.3532587

- temperature:       240.0000000
  free_energy:         9.0215106
  entropy:            31.9650430
  heat_capacity:      34.4365275
  energy:             16.6931209

- temperature:       250.0000000
  free_energy:         8.6947246
  entropy:            33.3882400
  heat_capacity:      35.2863016
  energy:             17.0417846

- temperature:       260.0000000
  free_energy:         8.3538245
  entropy:            34.7878084
  heat_capacity:      36.0784240
  energy:             17.3986547

- temperature:       270.0000000
  free_energy:         7.9990483
  entropy:            36.1634263
  heat_capacity:      36.8166404
  energy:             17.7631734

- temperature:       280.0000000
  free_energy:         7.6306364
  entropy:            37.5149421
  heat_capacity:      37.5046331
  energy:             18.1348201

- temperature:       290.0000000
  free_energy:         7.2488299
  entropy:            38.8423472
  heat_capacity:      38.1459590
  energy:             18.5131106

- temperature:       300.0000000
  free_energy:         6.8538694
  entropy:            40.1457522
  heat_capacity:      38.7440103
  energy:             18.8975951

- temperature:       310.0000000
  free_energy:         6.4459941
  entropy:            41.4253648
  heat_capacity:      39.3019902
  energy:             19.2878572

- temperature:       320.0000000
  free_energy:         6.0254405
  entropy:            42.6814714
  heat_capacity:      39.8229014
  energy:             19.6835114

- temperature:       330.0000000
  free_energy:         5.5924419
  entropy:            43.9144216
  heat_capacity:      40.3095427
  energy:             20.0842010

- temperature:       340.0000000
  free_energy:         5.1472279
  entropy:            45.1246139
  heat_capacity:      40.7645118
  energy:             20.4895967

- temperature:       350.0000000
  free_energy:         4.6900240
  entropy:            46.3124848
  heat_capacity:      41.1902115
  energy:             20.8993937

- temperature:       360.0000000
  free_energy:         4.2210511
  entropy:            47.4784990
  heat_capacity:      41.5888590
  energy:             21.3133107

- temperature:       370.0000000
  free_energy:         3.7405253
  entropy:            48.6231412
  heat_capacity:      41.9624963
  energy:             21.7310876

- temperature:       380.0000000
  free_energy:         3.2486579
  entropy:            49.7469098
  heat_capacity:      42.3130017
  energy:             22.1524836

- temperature:       390.0000000
  free_energy:         2.7456550
  entropy:            50.8503109
  heat_capacity:      42.6421012
  energy:             22.5772762

- temperature:       400.0000000
  free_energy:         2.2317178
  entropy:            51.9338543
  heat_capacity:      42.9513801
  energy:             23.0052595

- temperature:       410.0000000
  free_energy:         1.7070424
  entropy:            52.9980494
  heat_capacity:      43.2422936
  energy:             23.4362426

- temperature:       420.0000000
  free_energy:         1.1718196
  entropy:            54.0434024
  heat_capacity:      43.5161779
  energy:             23.8700487

- temperature:       430.0000000
  free_energy:         0.6262355
  entropy:            55.0704141
  heat_capacity:      43.7742597
  energy:             24.3065135

- temperature:       440.0000000
  free_energy:         0.0704709
  entropy:            56.0795775
  heat_capacity:      44.0176654
  energy:             24.7454849

- temperature:       450.0000000
  free_energy:        -0.4952982
  entropy:            57.0713768
  heat_capacity:      44.2474299
  energy:             25.1868214

- temperature:       460.0000000
  free_energy:        -1.0709004
  entropy:            58.0462862
  heat_capacity:      44.4645043
  energy:             25.6303913

- temperature:       470.0000000
  free_energy:        -1.6561692
  entropy:            59.0047686
  heat_capacity:      44.6697634
  energy:             26.0760721

- temperature:       480.0000000
  free_energy:        -2.2509425
  entropy:            59.9472757
  heat_capacity:      44.8640120
  energy:             26.5237498

- temperature:       490.0000000
  free_energy:        -2.8550629
  entropy:            60.8742469
  heat_capacity:      45.0479911
  energy:             26.9733181

- temperature:       500.0000000
  free_energy:        -3.4683771
  entropy:            61.7861096
  heat_capacity:      45.2223838
  energy:             27.4246777

- temperature:       510.0000000
  free_energy:        -4.0907361
  entropy:            62.6832785
  heat_capacity:      45.3878196
  energy:             27.8777359

- temperature:       520.0000000
  free_energy:        -4.7219950
  entropy:            63.5661561
  heat_capacity:      45.5448798
  energy:             28.3324062

- temperature:       530.0000000
  free_energy:        -5.3620129
  entropy:            64.4351326
  heat_capacity:      45.6941010
  energy:             28.7886074

- temperature:       540.0000000
  free_energy:        -6.0106526
  entropy:            65.2905858
  heat_capacity:      45.8359794
  energy:             29.2462637

- temperature:       550.0000000
  free_energy:        -6.6677807
  entropy:            66.1328814
  heat_capacity:      45.9709739
  energy:             29.7053040

- temperature:       560.0000000
  free_energy:        -7.3332675
  entropy:            66.9623736
  heat_capacity:      46.0995095
  energy:             30.1656617

- temperature:       570.0000000
  free_energy:        -8.0069867
  entropy:            67.7794047
  heat_capacity:      46.2219799
  energy:             30.6272740

- temperature:       580.0000000
  free_energy:        -8.6888152
  entropy:            68.5843060
  heat_capacity:      46.3387504
  energy:             31.0900823

- temperature:       590.0000000
  free_energy:        -9.3786334
  entropy:            69.3773976
  heat_capacity:      46.4501598
  energy:             31.5540312

- temperature:       600.0000000
  free_energy:       -10.0763248
  entropy:            70.1589891
  heat_capacity:      46.5565230
  energy:             32.0190687

- temperature:       610.0000000
  free_energy:       -10.7817759
  entropy:            70.9293798
  heat_capacity:      46.6581329
  energy:             32.4851458

- temperature:       620.0000000
  free_energy:       -11.4948761
  entropy:            71.6888588
  heat_capacity:      46.7552618
  energy:             32.9522164

- temperature:       630.0000000
  free_energy:       -12.2155176
  entropy:            72.4377056
  heat_capacity:      46.8481634
  energy:             33.4202369

- temperature:       640.0000000
  free_energy:       -12.9435956
  entropy:            73.1761906
  heat_capacity:      46.9370740
  energy:             33.8891663

- temperature:       650.0000000
  free_energy:       -13.6790078
  entropy:            73.9045748
  heat_capacity:      47.0222143
  energy:             34.3589658

- temperature:       660.0000000
  free_energy:       -14.4216543
  entropy:            74.6231107
  heat_capacity:      47.1037901
  energy:             34.8295988

- temperature:       670.0000000
  free_energy:       -15.1714380
  entropy:            75.3320423
  heat_capacity:      47.1819937
  energy:             35.3010304

- temperature:       680.0000000
  free_energy:       -15.9282639
  entropy:            76.0316057
  heat_capacity:      47.2570048
  energy:             35.7732280

- temperature:       690.0000000
  free_energy:       -16.6920396
  entropy:            76.7220290
  heat_capacity:      47.3289917
  energy:             36.2461604

- temperature:       700.0000000
  free_energy:       -17.4626748
  entropy:            77.4035329
  heat_capacity:      47.3981119
  energy:             36.7197983

- temperature:       710.0000000
  free_energy:       -18.2400813
  entropy:            78.0763308
  heat_capacity:      47.4645129
  energy:             37.1941136

- temperature:       720.0000000
  free_energy:       -19.0241731
  entropy:            78.7406291
  heat_capacity:      47.5283332
  energy:             37.6690799

- temperature:       730.0000000
  free_energy:       -19.8148662
  entropy:            79.3966278
  heat_capacity:      47.5897025
  energy:             38.1446721

- temperature:       740.0000000
  free_energy:       -20.6120786
  entropy:            80.0445200
  heat_capacity:      47.6487428
  energy:             38.6208662

- temperature:       750.0000000
  free_energy:       -21.4157302
  entropy:            80.6844930
  heat_capacity:      47.7055687
  energy:             39.0976396

- temperature:       760.0000000
  free_energy:       -22.2257427
  entropy:            81.3167279
  heat_capacity:      47.7602879
  energy:             39.5749706

- temperature:       770.0000000
  free_energy:       -23.0420395
  entropy:            81.9414002
  heat_capacity:      47.8130017
  energy:             40.0528386

- temperature:       780.0000000
  free_energy:       -23.8645460
  entropy:            82.5586798
  heat_capacity:      47.8638055
  energy:             40.5312242

- temperature:       790.0000000
  free_energy:       -24.6931890
  entropy:            83.1687313
  heat_capacity:      47.9127893
  energy:             41.0101087

- temperature:       800.0000000
  free_energy:       -25.5278971
  entropy:            83.7717141
  heat_capacity:      47.9600378
  energy:             41.4894742

- temperature:       810.0000000
  free_energy:       -26.3686003
  entropy:            84.3677829
  heat_capacity:      48.0056309
  energy:             41.9693039

- temperature:       820.0000000
  free_energy:       -27.2152302
  entropy:            84.9570875
  heat_capacity:      48.0496442
  energy:             42.4495816

- temperature:       830.0000000
  free_energy:       -28.0677200
  entropy:            85.5397732
  heat_capacity:      48.0921487
  energy:             42.9302918

- temperature:       840.0000000
  free_energy:       -28.9260041
  entropy:            86.1159807
  heat_capacity:      48.1332120
  energy:             43.4114198

- temperature:       850.0000000
  free_energy:       -29.7900184
  entropy:            86.6858469
  heat_capacity:      48.1728976
  energy:             43.8929514

- temperature:       860.0000000
  free_energy:       -30.6597003
  entropy:            87.2495042
  heat_capacity:      48.2112659
  energy:             44.3748733

- temperature:       870.0000000
  free_energy:       -31.5349882
  entropy:            87.8070814
  heat_capacity:      48.2483737
  energy:             44.8571725

- temperature:       880.0000000
  free_energy:       -32.4158221
  entropy:            88.3587032
  heat_capacity:      48.2842752
  energy:             45.3398368

- temperature:       890.0000000
  free_energy:       -33.3021429
  entropy:            88.9044911
  heat_capacity:      48.3190215
  energy:             45.8228542

- temperature:       900.0000000
  free_energy:       -34.1938928
  entropy:            89.4445626
  heat_capacity:      48.3526610
  energy:             46.3062135

- temperature:       910.0000000
  free_energy:       -35.0910154
  entropy:            89.9790322
  heat_capacity:      48.3852400
  energy:             46.7899039

- temperature:       920.0000000
  free_energy:       -35.9934552
  entropy:            90.5080110
  heat_capacity:      48.4168020
  energy:             47.2739149

- temperature:       930.0000000
  free_energy:       -36.9011577
  entropy:            91.0316069
  heat_capacity:      48.4473884
  energy:             47.7582367

- temperature:       940.0000000
  free_energy:       -37.8140697
  entropy:            91.5499248
  heat_capacity:      48.4770388
  energy:             48.2428596

- temperature:       950.0000000
  free_energy:       -38.7321390
  entropy:            92.0630668
  heat_capacity:      48.5057906
  energy:             48.7277744

- temperature:       960.0000000
  free_energy:       -39.6553141
  entropy:            92.5711319
  heat_capacity:      48.5336793
  energy:             49.2129725

- temperature:       970.0000000
  free_energy:       -40.5835450
  entropy:            93.0742168
  heat_capacity:      48.5607390
  energy:             49.6984453

- temperature:       980.0000000
  free_energy:       -41.5167822
  entropy:            93.5724151
  heat_capacity:      48.5870018
  energy:             50.1841846

- temperature:       990.0000000
  free_energy:       -42.4549773
  entropy:            94.0658183
  heat_capacity:      48.6124984
  energy:             50.6701828

- temperature:      1000.0000000
  free_energy:       -43.3980829
  entropy:            94.5545150
  heat_capacity:      48.6372582
  energy:             51.1564321
