# Tetrahedron method
        0.0000000000        0.0000000000
        0.0500000000        0.0000452501
        0.1000000000        0.0001810017
        0.1500000000        0.0004072548
        0.2000000000        0.0007240094
        0.2500000000        0.0020188723
        0.3000000000        0.0027825184
        0.3500000000        0.0035266180
        0.4000000000        0.0048721524
        0.4500000000        0.0065708650
        0.5000000000        0.0077158479
        0.5500000000        0.0097053838
        0.6000000000        0.0115857568
        0.6500000000        0.0133662135
        0.7000000000        0.0159331390
        0.7500000000        0.0182305250
        0.8000000000        0.0204314096
        0.8500000000        0.0230155696
        0.9000000000        0.0261067627
        0.9500000000        0.0288590061
        1.0000000000        0.0316307725
        1.0500000000        0.0351690717
        1.1000000000        0.0387326051
        1.1500000000        0.0419941205
        1.2000000000        0.0455885713
        1.2500000000        0.0498212978
        1.3000000000        0.0538667449
        1.3500000000        0.0577119070
        1.4000000000        0.0620285623
        1.4500000000        0.0670781260
        1.5000000000        0.0717700324
        1.5500000000        0.0763458275
        1.6000000000        0.0815510750
        1.6500000000        0.0873801745
        1.7000000000        0.0927513470
        1.7500000000        0.0981530726
        1.8000000000        0.1043909597
        1.8500000000        0.1110103880
        1.9000000000        0.1172752137
        1.9500000000        0.1239446866
        2.0000000000        0.1314601201
        2.0500000000        0.1388350441
        2.1000000000        0.1462440066
        2.1500000000        0.1549193322
        2.2000000000        0.1632477841
        2.2500000000        0.1719415193
        2.3000000000        0.1809568236
        2.3500000000        0.1912845424
        2.4000000000        0.2016870428
        2.4500000000        0.2119288239
        2.5000000000        0.2236707796
        2.5500000000        0.2356768100
        2.6000000000        0.2482745517
        2.6500000000        0.2617944611
        2.7000000000        0.2761022401
        2.7500000000        0.2910292713
        2.8000000000        0.3065520230
        2.8500000000        0.3249897833
        2.9000000000        0.3436712571
        2.9500000000        0.3626201724
        3.0000000000        0.3851251259
        3.0500000000        0.4072074623
        3.1000000000        0.4310638056
        3.1500000000        0.4614108917
        3.2000000000        0.4931916532
        3.2500000000        0.5258306716
        3.3000000000        0.5610729776
        3.3500000000        0.6082238924
        3.4000000000        0.6627076300
        3.4500000000        0.7292074625
        3.5000000000        0.8386034344
        3.5500000000        0.8943388832
        3.6000000000        0.9512363755
        3.6500000000        1.0082093148
        3.7000000000        1.0886711780
        3.7500000000        1.1897882504
        3.8000000000        1.3466982391
        3.8500000000        1.8266026983
        3.9000000000        1.7301366208
        3.9500000000        1.6825073419
        4.0000000000        1.3249008916
        4.0500000000        1.0065081892
        4.1000000000        0.8612061912
        4.1500000000        0.7663524667
        4.2000000000        0.6958735332
        4.2500000000        0.6457069537
        4.3000000000        0.6035340897
        4.3500000000        0.5695380968
        4.4000000000        0.5458211131
        4.4500000000        0.5219222749
        4.5000000000        0.5036639653
        4.5500000000        0.4892883935
        4.6000000000        0.4778781455
        4.6500000000        0.4697805602
        4.7000000000        0.4647876412
        4.7500000000        0.4613413309
        4.8000000000        0.4616102942
        4.8500000000        0.4734115730
        4.9000000000        0.4894484661
        4.9500000000        0.5095234686
        5.0000000000        0.5259919197
        5.0500000000        0.5391318461
        5.1000000000        0.5581959434
        5.1500000000        0.5762758809
        5.2000000000        0.5877545909
        5.2500000000        0.6050623939
        5.3000000000        0.4745730751
        5.3500000000        0.3688563097
        5.4000000000        0.2941043434
        5.4500000000        0.2184997413
        5.5000000000        0.1271240873
        5.5500000000        0.0370097630
        5.6000000000        0.0378079950
        5.6500000000        0.0387048133
        5.7000000000        0.0396223297
        5.7500000000        0.0405420543
        5.8000000000        0.0414597101
        5.8500000000        0.0423759645
        5.9000000000        0.0432948606
        5.9500000000        0.0442099181
        6.0000000000        0.0451747531
        6.0500000000        0.0462284913
        6.1000000000        0.0472869174
        6.1500000000        0.0483328199
        6.2000000000        0.0493862874
        6.2500000000        0.0504379040
        6.3000000000        0.0514890850
        6.3500000000        0.0525710446
        6.4000000000        0.0537758538
        6.4500000000        0.0549776314
        6.5000000000        0.0561843053
        6.5500000000        0.0573873777
        6.6000000000        0.0585958345
        6.6500000000        0.0598024529
        6.7000000000        0.0610413965
        6.7500000000        0.0624238405
        6.8000000000        0.0638089648
        6.8500000000        0.0651847311
        6.9000000000        0.0665719268
        6.9500000000        0.0679577169
        7.0000000000        0.0693465552
        7.0500000000        0.0708266893
        7.1000000000        0.0724069969
        7.1500000000        0.0739931370
        7.2000000000        0.0755808814
        7.2500000000        0.0771772754
        7.3000000000        0.0787772309
        7.3500000000        0.0803846598
        7.4000000000        0.0821864906
        7.4500000000        0.0840149162
        7.5000000000        0.0858391263
        7.5500000000        0.0876829742
        7.6000000000        0.0895313131
        7.6500000000        0.0913954769
        7.7000000000        0.0934098302
        7.7500000000        0.0955142455
        7.8000000000        0.0976375164
        7.8500000000        0.0997766430
        7.9000000000        0.1019328491
        7.9500000000        0.1041057148
        8.0000000000        0.1064376729
        8.0500000000        0.1088970112
        8.1000000000        0.1113720534
        8.1500000000        0.1138896684
        8.2000000000        0.1164352115
        8.2500000000        0.1190204043
        8.3000000000        0.1217948588
        8.3500000000        0.1247106798
        8.4000000000        0.1276789521
        8.4500000000        0.1306953880
        8.5000000000        0.1337670131
        8.5500000000        0.1369162991
        8.6000000000        0.1403726830
        8.6500000000        0.1439282829
        8.7000000000        0.1475958744
        8.7500000000        0.1513622025
        8.8000000000        0.1552306167
        8.8500000000        0.1593428430
        8.9000000000        0.1637957189
        8.9500000000        0.1684042978
        9.0000000000        0.1732307015
        9.0500000000        0.1783031850
        9.1000000000        0.1836062904
        9.1500000000        0.1895553825
        9.2000000000        0.1959137228
        9.2500000000        0.2027183287
        9.3000000000        0.2101733553
        9.3500000000        0.2183426516
        9.4000000000        0.2277480838
        9.4500000000        0.2386833345
        9.5000000000        0.2516318781
        9.5500000000        0.2680405550
        9.6000000000        0.2911258841
        9.6500000000        0.3436193604
        9.7000000000        0.3473200302
        9.7500000000        0.3321326136
        9.8000000000        0.3180152164
        9.8500000000        0.3041265161
        9.9000000000        0.2929714543
        9.9500000000        0.2842907140
       10.0000000000        0.2767404482
       10.0500000000        0.2690608531
       10.1000000000        0.2632330246
       10.1500000000        0.2569928554
       10.2000000000        0.2518692453
       10.2500000000        0.2461399612
       10.3000000000        0.2415601650
       10.3500000000        0.2369836323
       10.4000000000        0.2323574799
       10.4500000000        0.2282177570
       10.5000000000        0.2239222754
       10.5500000000        0.2198234174
       10.6000000000        0.2159134763
       10.6500000000        0.2119256437
       10.7000000000        0.2079818340
       10.7500000000        0.2041577271
       10.8000000000        0.2002663919
       10.8500000000        0.1962677769
       10.9000000000        0.1923603852
       10.9500000000        0.1884561485
       11.0000000000        0.1845039431
       11.0500000000        0.1802756460
       11.1000000000        0.1760186443
       11.1500000000        0.1718687522
       11.2000000000        0.1677070163
       11.2500000000        0.1629615061
       11.3000000000        0.1581876930
       11.3500000000        0.1536918113
       11.4000000000        0.1488543502
       11.4500000000        0.1433636059
       11.5000000000        0.1379046036
       11.5500000000        0.1325353522
       11.6000000000        0.1267958133
       11.6500000000        0.1203701184
       11.7000000000        0.1140587621
       11.7500000000        0.1070886113
       11.8000000000        0.0998908474
       11.8500000000        0.0899673548
       11.9000000000        0.0804704994
       11.9500000000        0.0740763662
       12.0000000000        0.0680803849
       12.0500000000        0.0666875808
       12.1000000000        0.0682441801
       12.1500000000        0.0712234299
       12.2000000000        0.0739096477
       12.2500000000        0.0808971288
       12.3000000000        0.0886289314
       12.3500000000        0.0996845854
       12.4000000000        0.1127965515
       12.4500000000        0.1309454238
       12.5000000000        0.1530485829
       12.5500000000        0.1814848480
       12.6000000000        0.2217356631
       12.6500000000        0.2866743180
       12.7000000000        0.3842322492
       12.7500000000        0.4060426415
       12.8000000000        0.4271734975
       12.8500000000        0.4524545753
       12.9000000000        0.4789945982
       12.9500000000        0.5092483477
       13.0000000000        0.5442434079
       13.0500000000        0.5806765487
       13.1000000000        0.6127818694
       13.1500000000        0.6598132779
       13.2000000000        0.6225281617
       13.2500000000        0.5186881376
       13.3000000000        0.4718252694
       13.3500000000        0.4409369959
       13.4000000000        0.4157861708
       13.4500000000        0.3953436312
       13.5000000000        0.3797163682
       13.5500000000        0.3652176623
       13.6000000000        0.3510451565
       13.6500000000        0.3407919950
       13.7000000000        0.3309018204
       13.7500000000        0.3207086137
       13.8000000000        0.3118993825
       13.8500000000        0.3044486772
       13.9000000000        0.2968985687
       13.9500000000        0.2886477428
       14.0000000000        0.2826358369
       14.0500000000        0.2765549573
       14.1000000000        0.2701192513
       14.1500000000        0.2638327790
       14.2000000000        0.2586410952
       14.2500000000        0.2532887841
       14.3000000000        0.2472193932
       14.3500000000        0.2424682874
       14.4000000000        0.2377174155
       14.4500000000        0.2326872780
       14.5000000000        0.2274997962
       14.5500000000        0.2231472262
       14.6000000000        0.2185728535
       14.6500000000        0.2134391739
       14.7000000000        0.2092280283
       14.7500000000        0.2049416275
       14.8000000000        0.2001526231
       14.8500000000        0.1957572271
       14.9000000000        0.1915690351
       14.9500000000        0.1869992658
       15.0000000000        0.3136486992
       15.0500000000        0.4748803250
       15.1000000000        0.6009185577
       15.1500000000        0.7328839798
       15.2000000000        0.8801594420
       15.2500000000        1.0528997560
       15.3000000000        1.2728256253
       15.3500000000        1.5785190045
       15.4000000000        2.4147448977
       15.4500000000        2.4620545585
       15.5000000000        2.6028887854
       15.5500000000        2.7717906526
       15.6000000000        2.9528702718
       15.6500000000        2.9707022821
       15.7000000000        2.8239601891
       15.7500000000        2.7091900804
       15.8000000000        2.6473873336
       15.8500000000        2.6047675697
       15.9000000000        2.2479020886
       15.9500000000        1.7672772774
       16.0000000000        1.4930700238
       16.0500000000        1.2796358947
       16.1000000000        1.0852436857
       16.1500000000        0.8812725983
       16.2000000000        0.5814980424
       16.2500000000        0.0000000000
       16.3000000000        0.0000000000
       16.3500000000        0.0000000000
       16.4000000000        0.0000000000
       16.4500000000        0.0000000000
       16.5000000000        0.0000000000
       16.5500000000        0.0000000000
       16.6000000000        0.0000000000
       16.6500000000        0.0000000000
       16.7000000000        0.0000000000
       16.7500000000        0.0000000000
       16.8000000000        0.0000000000
       16.8500000000        0.0000000000
       16.9000000000        0.0000000000
       16.9500000000        0.0000000000
       17.0000000000        0.0000000000
