
     Program PWSCF v.6.5 starts on 29May2025 at 16:52: 0 

     This program is part of the open-source Quantum ESPRESSO suite
     for quantum simulation of materials; please cite
         "P. Giannozzi et al., J. Phys.:Condens. Matter 21 395502 (2009);
         "P. Giannozzi et al., J. Phys.:Condens. Matter 29 465901 (2017);
          URL http://www.quantum-espresso.org", 
     in publications or presentations arising from this work. More details at
     http://www.quantum-espresso.org/quote

     Parallel version (MPI), running on     1 processors

     MPI processes distributed on     1 nodes
     Waiting for input...
     Reading input from standard input

     Current dimensions of program PWSCF are:
     Max number of different atomic species (ntypx) = 10
     Max number of k-points (npk) =  40000
     Max angular momentum in pseudopotentials (lmaxx) =  3

     Subspace diagonalization in iterative solution of the eigenvalue problem:
     a serial algorithm will be used

     Message from routine setup:
     no reason to have ecutrho>4*ecutwfc

     G-vector sticks info
     --------------------
     sticks:   dense  smooth     PW     G-vecs:    dense   smooth      PW
     Sum         733     295     97                12939     3287     645



     bravais-lattice index     =            2
     lattice parameter (alat)  =      10.2620  a.u.
     unit-cell volume          =     270.1693 (a.u.)^3
     number of atoms/cell      =            2
     number of atomic types    =            1
     number of electrons       =         8.00
     number of Kohn-Sham states=            5
     kinetic-energy cutoff     =      20.0000  Ry
     charge density cutoff     =     200.0000  Ry
     convergence threshold     =      1.0E-06
     mixing beta               =       0.7000
     number of iterations used =            8  plain     mixing
     Exchange-correlation= SLA PZ NOGX NOGC
                           (   1   1   0   0   0   0   0)

     celldm(1)=  10.262000  celldm(2)=   0.000000  celldm(3)=   0.000000
     celldm(4)=   0.000000  celldm(5)=   0.000000  celldm(6)=   0.000000

     crystal axes: (cart. coord. in units of alat)
               a(1) = (  -0.500000   0.000000   0.500000 )  
               a(2) = (   0.000000   0.500000   0.500000 )  
               a(3) = (  -0.500000   0.500000   0.000000 )  

     reciprocal axes: (cart. coord. in units 2 pi/alat)
               b(1) = ( -1.000000 -1.000000  1.000000 )  
               b(2) = (  1.000000  1.000000  1.000000 )  
               b(3) = ( -1.000000  1.000000 -1.000000 )  


     PseudoPot. # 1 for Si read from file:
     ./Si.pz-vbc.UPF
     MD5 check sum: a974d1b8727157e37210f3f86afb6210
     Pseudo is Norm-conserving, Zval =  4.0
     Generated by new atomic code, or converted to UPF format
     Using radial grid of  431 points,  2 beta functions with: 
                l(1) =   0
                l(2) =   1

     atomic species   valence    mass     pseudopotential
        Si             4.00    28.08600     Si( 1.00)

     48 Sym. Ops., with inversion, found (24 have fractional translation)



   Cartesian axes

     site n.     atom                  positions (alat units)
         1           Si  tau(   1) = (   0.0000000   0.0000000   0.0000000  )
         2           Si  tau(   2) = (   0.2500000   0.2500000   0.2500000  )

     number of k points=    16
                       cart. coord. in units 2pi/alat
        k(    1) = (   0.0000000   0.0000000   0.0000000), wk =   0.0092593
        k(    2) = (  -0.1666667   0.1666667  -0.1666667), wk =   0.0740741
        k(    3) = (  -0.3333333   0.3333333  -0.3333333), wk =   0.0740741
        k(    4) = (   0.5000000  -0.5000000   0.5000000), wk =   0.0370370
        k(    5) = (   0.0000000   0.3333333   0.0000000), wk =   0.0555556
        k(    6) = (  -0.1666667   0.5000000  -0.1666667), wk =   0.2222222
        k(    7) = (   0.6666667  -0.3333333   0.6666667), wk =   0.2222222
        k(    8) = (   0.5000000  -0.1666667   0.5000000), wk =   0.2222222
        k(    9) = (   0.3333333   0.0000000   0.3333333), wk =   0.1111111
        k(   10) = (   0.0000000   0.6666667   0.0000000), wk =   0.0555556
        k(   11) = (   0.8333333  -0.1666667   0.8333333), wk =   0.2222222
        k(   12) = (   0.6666667  -0.0000000   0.6666667), wk =   0.1111111
        k(   13) = (   0.0000000  -1.0000000   0.0000000), wk =   0.0277778
        k(   14) = (   0.6666667  -0.3333333   1.0000000), wk =   0.2222222
        k(   15) = (   0.5000000  -0.1666667   0.8333333), wk =   0.2222222
        k(   16) = (  -0.3333333  -1.0000000   0.0000000), wk =   0.1111111

     Dense  grid:    12939 G-vectors     FFT dimensions: (  36,  36,  36)

     Smooth grid:     3287 G-vectors     FFT dimensions: (  24,  24,  24)

     Estimated max dynamical RAM per process >       9.52 MB

     Initial potential from superposition of free atoms

     starting charge    7.99901, renormalised to    8.00000
     Starting wfcs are    8 randomized atomic wfcs

     total cpu time spent up to now is        0.1 secs

     Self-consistent Calculation

     iteration #  1     ecut=    20.00 Ry     beta= 0.70
     Davidson diagonalization with overlap
     ethr =  1.00E-02,  avg # of iterations =  2.7

     Threshold (ethr) on eigenvalues was too large:
     Diagonalizing with lowered threshold

     Davidson diagonalization with overlap
     ethr =  7.69E-04,  avg # of iterations =  1.1

     total cpu time spent up to now is        0.3 secs

     total energy              =     -15.84228779 Ry
     Harris-Foulkes estimate   =     -15.86279194 Ry
     estimated scf accuracy    <       0.06079122 Ry

     iteration #  2     ecut=    20.00 Ry     beta= 0.70
     Davidson diagonalization with overlap
     ethr =  7.60E-04,  avg # of iterations =  1.0

     total cpu time spent up to now is        0.4 secs

     total energy              =     -15.84539191 Ry
     Harris-Foulkes estimate   =     -15.84568147 Ry
     estimated scf accuracy    <       0.00210983 Ry

     iteration #  3     ecut=    20.00 Ry     beta= 0.70
     Davidson diagonalization with overlap
     ethr =  2.64E-05,  avg # of iterations =  2.6

     total cpu time spent up to now is        0.5 secs

     total energy              =     -15.84568864 Ry
     Harris-Foulkes estimate   =     -15.84570721 Ry
     estimated scf accuracy    <       0.00005430 Ry

     iteration #  4     ecut=    20.00 Ry     beta= 0.70
     Davidson diagonalization with overlap
     ethr =  6.79E-07,  avg # of iterations =  2.8

     total cpu time spent up to now is        0.5 secs

     total energy              =     -15.84569951 Ry
     Harris-Foulkes estimate   =     -15.84570060 Ry
     estimated scf accuracy    <       0.00000250 Ry

     iteration #  5     ecut=    20.00 Ry     beta= 0.70
     Davidson diagonalization with overlap
     ethr =  3.13E-08,  avg # of iterations =  2.2

     total cpu time spent up to now is        0.6 secs

     End of self-consistent calculation

          k = 0.0000 0.0000 0.0000 (   411 PWs)   bands (ev):

    -5.8752   6.0648   6.0648   6.0648   8.6191

          k =-0.1667 0.1667-0.1667 (   396 PWs)   bands (ev):

    -5.5130   3.6821   5.6124   5.6124   8.3762

          k =-0.3333 0.3333-0.3333 (   407 PWs)   bands (ev):

    -4.4952   0.7236   5.0587   5.0587   7.7802

          k = 0.5000-0.5000 0.5000 (   410 PWs)   bands (ev):

    -3.5303  -0.9243   4.8583   4.8583   7.5607

          k = 0.0000 0.3333 0.0000 (   399 PWs)   bands (ev):

    -5.3908   4.0362   4.8647   4.8647   7.7338

          k =-0.1667 0.5000-0.1667 (   405 PWs)   bands (ev):

    -4.5745   1.6349   4.0602   4.3084   7.9906

          k = 0.6667-0.3333 0.6667 (   409 PWs)   bands (ev):

    -3.3742  -0.5473   3.2721   4.2782   8.0689

          k = 0.5000-0.1667 0.5000 (   410 PWs)   bands (ev):

    -3.7633   0.0570   2.9980   4.7599   8.4825

          k = 0.3333 0.0000 0.3333 (   397 PWs)   bands (ev):

    -4.9243   2.3553   3.6328   5.4980   9.0784

          k = 0.0000 0.6667 0.0000 (   419 PWs)   bands (ev):

    -3.9707   1.0752   3.6324   3.6324   6.7404

          k = 0.8333-0.1667 0.8333 (   411 PWs)   bands (ev):

    -2.8032  -0.4767   2.4015   3.4950   7.0797

          k = 0.6667-0.0000 0.6667 (   403 PWs)   bands (ev):

    -2.5998  -0.6859   1.6105   3.9404   7.5877

          k = 0.0000-1.0000 0.0000 (   412 PWs)   bands (ev):

    -1.7282  -1.7282   3.1954   3.1954   6.7223

          k = 0.6667-0.3333 1.0000 (   407 PWs)   bands (ev):

    -3.5823   0.4404   2.4655   3.7527   8.8814

          k = 0.5000-0.1667 0.8333 (   406 PWs)   bands (ev):

    -2.5896  -0.7639   2.0231   3.2802   9.3783

          k =-0.3333-1.0000 0.0000 (   406 PWs)   bands (ev):

    -1.6034  -1.6034   2.3878   2.3878   8.7728

     highest occupied, lowest unoccupied level (ev):     6.0648    6.7223

!    total energy              =     -15.84569998 Ry
     Harris-Foulkes estimate   =     -15.84570001 Ry
     estimated scf accuracy    <       0.00000006 Ry

     The total energy is the sum of the following terms:

     one-electron contribution =       4.65345395 Ry
     hartree contribution      =       1.09612549 Ry
     xc contribution           =      -4.79762421 Ry
     ewald contribution        =     -16.79765521 Ry

     convergence has been achieved in   5 iterations

     Writing output data file ./tmp/Si.save/

     init_run     :      0.07s CPU      0.08s WALL (       1 calls)
     electrons    :      0.45s CPU      0.52s WALL (       1 calls)

     Called by init_run:
     wfcinit      :      0.03s CPU      0.04s WALL (       1 calls)
     potinit      :      0.01s CPU      0.01s WALL (       1 calls)
     hinit0       :      0.02s CPU      0.02s WALL (       1 calls)

     Called by electrons:
     c_bands      :      0.31s CPU      0.36s WALL (       6 calls)
     sum_band     :      0.10s CPU      0.11s WALL (       6 calls)
     v_of_rho     :      0.02s CPU      0.02s WALL (       6 calls)
     mix_rho      :      0.01s CPU      0.01s WALL (       6 calls)

     Called by c_bands:
     init_us_2    :      0.01s CPU      0.02s WALL (     208 calls)
     cegterg      :      0.29s CPU      0.31s WALL (      96 calls)

     Called by sum_band:

     Called by *egterg:
     h_psi        :      0.27s CPU      0.29s WALL (     309 calls)
     g_psi        :      0.00s CPU      0.00s WALL (     197 calls)
     cdiaghg      :      0.01s CPU      0.01s WALL (     277 calls)

     Called by h_psi:
     h_psi:calbec :      0.01s CPU      0.01s WALL (     309 calls)
     vloc_psi     :      0.25s CPU      0.27s WALL (     309 calls)
     add_vuspsi   :      0.01s CPU      0.01s WALL (     309 calls)

     General routines
     calbec       :      0.01s CPU      0.01s WALL (     309 calls)
     fft          :      0.02s CPU      0.02s WALL (      28 calls)
     ffts         :      0.01s CPU      0.01s WALL (      12 calls)
     fftw         :      0.27s CPU      0.29s WALL (    3176 calls)
     interpolate  :      0.01s CPU      0.01s WALL (       6 calls)

     Parallel routines

     PWSCF        :      0.56s CPU      0.71s WALL


   This run was terminated on:  16:52: 0  29May2025            

=------------------------------------------------------------------------------=
   JOB DONE.
=------------------------------------------------------------------------------=
