------------------------------------------------------------
          Invoking FHI-aims ...

          When using FHI-aims, please cite the following reference:

            Volker Blum, Ralf Gehrke, Felix Hanke, Paula Havu,
            Ville Havu, Xinguo Ren, Karsten Reuter, and Matthias Scheffler,
            'Ab Initio Molecular Simulations with Numeric Atom-Centered Orbitals',
            Computer Physics Communications 180, 2175-2196 (2009)

          In addition, many other developments in FHI-aims are likely important for
          your particular application. If so, please cite them. A partial list of references
          is written at the end of this file. Thank you for giving credit to the authors
          of these developments.

          For general information about FHI-aims please find us at

            https://fhi-aims.org

          Online tutorials can be found at

            https://fhi-aims-club.gitlab.io/tutorials/tutorials-overview/

          For any questions about FHI-aims, please visit our slack channel at

            https://fhi-aims.slack.com

          and our main development and support site at

            https://aims-git.rz-berlin.mpg.de .

          The latter site, in particular, has a wiki to collect information, as well
          as an issue tracker to log discussions, suggest improvements, and report issues
          or bugs. https://aims-git.rz-berlin.mpg.de is also the main development site
          of the project and all new and updated code versions can be obtained there.
          Please send an email to aims-coordinators@fhi-berlin.mpg.de and we will add
          you to these sites. They are for you and everyone is welcome there.

------------------------------------------------------------



  Date     :  20250610, Time     :  152027.836
  Time zero on CPU 1             :   0.971130000000000E-01  s.
  Internal wall clock time zero  :           518800827.836  s.

  FHI-aims created a unique identifier for this run for later identification
  aims_uuid : E9A08524-1350-45DA-A8F9-C57A6670D26C

  Build configuration of the current instance of FHI-aims
  -------------------------------------------------------
  FHI-aims version      : 240206
  Commit number         : 583c55b2e
  CMake host system     : Darwin-23.4.0
  CMake version         : 3.29.1
  Fortran compiler      : /opt/homebrew/bin/mpif90 (GNU) version 13.2.0
  Fortran compiler flags: -O3 -fallow-argument-mismatch -ffree-line-length-none -framework accelerate
  C compiler            : /opt/homebrew/bin/mpicc (AppleClang) version 15.0.0.15000309
  C compiler flags      : -O3 -framework accelerate
  C++ compiler          : /opt/homebrew/bin/mpic++ (AppleClang) version 15.0.0.15000309
  C++ compiler flags    : -O3 -framework accelerate
  HIP compiler          :
  HIP compiler flags    :
  HIP GPU arch          :
  Using MPI
  Using ScaLAPACK
  Using LibXC
  Using i-PI
  Using RLSY
  Linking against: /Users/carbogno/Codes/2023_Scalapack/libscalapack.a

  Using        8 parallel tasks.
  Task        0 on host ThMac05.local reporting.
  Task        1 on host ThMac05.local reporting.
  Task        2 on host ThMac05.local reporting.
  Task        3 on host ThMac05.local reporting.
  Task        4 on host ThMac05.local reporting.
  Task        5 on host ThMac05.local reporting.
  Task        6 on host ThMac05.local reporting.
  Task        7 on host ThMac05.local reporting.

  Memory overcommitment: We could not find /proc/sys/vm/overcommit_memory on your system.

  Obtaining array dimensions for all initial allocations:
  
  -----------------------------------------------------------------------
  Parsing control.in (first pass over file, find array dimensions only).
  The contents of control.in will be repeated verbatim below
  unless switched off by setting 'verbatim_writeout .false.' .
  in the first line of control.in .
  -----------------------------------------------------------------------
  
  #===============================================================================
  # FHI-aims file: ./control.in
  # Created using the Atomic Simulation Environment (ASE)
  # Tue Jun 10 15:20:27 2025
  #===============================================================================
  xc                                 pw-lda
  k_grid                             4 4 4
  sc_accuracy_rho                    1e-06
  relativistic                       atomic_zora scalar
  output_level                       MD_light
  use_pimd_wrapper                   localhost 10004
  #===============================================================================
  
  ################################################################################
  #
  #  FHI-aims code project
  #  VB, Fritz-Haber Institut, 2009
  #
  #  Suggested "light" defaults for Si atom (to be pasted into control.in file)
  #  Be sure to double-check any results obtained with these settings for post-processing,
  #  e.g., with the "tight" defaults and larger basis sets.
  #
  #  2020/09/08 Added f function to "light" after reinspection of Delta test outcomes.
  #             This was done for all of Al-Cl and is a tricky decision since it makes
  #             "light" calculations measurably more expensive for these elements.
  #             Nevertheless, outcomes for P, S, Cl (and to some extent, Si) appear
  #             to justify this choice.
  #
  ################################################################################
    species        Si
  #     global species definitions
      nucleus             14
      mass                28.0855
  #
      l_hartree           4
  #
      cut_pot             3.5          1.5  1.0
      basis_dep_cutoff    1e-4
  #
      radial_base         42 5.0
      radial_multiplier   1
      angular_grids       specified
        division   0.5866   50
        division   0.9616  110
        division   1.2249  194
        division   1.3795  302
  #      division   1.4810  434
  #      division   1.5529  590
  #      division   1.6284  770
  #      division   1.7077  974
  #      division   2.4068 1202
  #      outer_grid   974
        outer_grid 302
  ################################################################################
  #
  #  Definition of "minimal" basis
  #
  ################################################################################
  #     valence basis states
      valence      3  s   2.
      valence      3  p   2.
  #     ion occupancy
      ion_occ      3  s   1.
      ion_occ      3  p   1.
  ################################################################################
  #
  #  Suggested additional basis functions. For production calculations,
  #  uncomment them one after another (the most important basis functions are
  #  listed first).
  #
  #  Constructed for dimers: 1.75 A, 2.0 A, 2.25 A, 2.75 A, 3.75 A
  #
  ################################################################################
  #  "First tier" - improvements: -571.96 meV to -37.03 meV
       hydro 3 d 4.2
       hydro 2 p 1.4
       hydro 4 f 6.2
       ionic 3 s auto
  #  "Second tier" - improvements: -16.76 meV to -3.03 meV
  #     hydro 3 d 9
  #     hydro 5 g 9.4
  #     hydro 4 p 4
  #     hydro 1 s 0.65
  #  "Third tier" - improvements: -3.89 meV to -0.60 meV
  #     ionic 3 d auto
  #     hydro 3 s 2.6
  #     hydro 4 f 8.4
  #     hydro 3 d 3.4
  #     hydro 3 p 7.8
  #  "Fourth tier" - improvements: -0.33 meV to -0.11 meV
  #     hydro 2 p 1.6
  #     hydro 5 g 10.8
  #     hydro 5 f 11.2
  #     hydro 3 d 1
  #     hydro 4 s 4.5
  #  Further basis functions that fell out of the optimization - noise
  #  level... < -0.08 meV
  #     hydro 4 d 6.6
  #     hydro 5 g 16.4
  #     hydro 4 d 9
  
  -----------------------------------------------------------------------
  Completed first pass over input file control.in .
  -----------------------------------------------------------------------
  
  
  -----------------------------------------------------------------------
  Parsing geometry.in (first pass over file, find array dimensions only).
  The contents of geometry.in will be repeated verbatim below
  unless switched off by setting 'verbatim_writeout .false.' .
  in the first line of geometry.in .
  -----------------------------------------------------------------------
  
  #=======================================================
  # FHI-aims file: ./geometry.in
  # Created using the Atomic Simulation Environment (ASE)
  # Tue Jun 10 15:20:27 2025
  #=======================================================
  lattice_vector 5.4088325884509993 0.0000000000639995 0.0000000001369997
  lattice_vector 0.0000000000629998 5.4088325742939993 0.0000000001030003
  lattice_vector 0.0000000001370002 0.0000000001020002 5.4088325742309999
  atom_frac 0.0376823361137496 -0.0002716496216796 0.0309450654791259 Si
  atom_frac -0.0146448131801903 0.4741536481911582 0.5025649492237206 Si
  atom_frac 0.4911770599286173 0.0130922075247142 0.5025573776118717 Si
  atom_frac 0.4832050978759688 0.5248117965348228 -0.0232565667311677 Si
  atom_frac 0.2741253744205133 0.2688698919290540 0.2528031542417827 Si
  atom_frac 0.2156283725392739 0.7473979404630314 0.7350127645705423 Si
  atom_frac 0.7437484165079724 0.2269615028832285 0.7621615551135332 Si
  atom_frac 0.7690781557871706 0.7449846620646496 0.2372117004899247 Si
  
  -----------------------------------------------------------------------
  Completed first pass over input file geometry.in .
  -----------------------------------------------------------------------
  

  Basic array size parameters:
  | Number of species                 :        1
  | Number of atoms                   :        8
  | Number of lattice vectors         :        3
  | Max. basis fn. angular momentum   :        3
  | Max. atomic/ionic basis occupied n:        3
  | Max. number of basis fn. types    :        3
  | Max. radial fns per species/type  :        5
  | Max. logarithmic grid size        :     1346
  | Max. radial integration grid size :       42
  | Max. angular integration grid size:      302
  | Max. angular grid division number :        8
  | Radial grid for Hartree potential :     1346
  | Number of spin channels           :        1

------------------------------------------------------------
          Reading file control.in.
------------------------------------------------------------
  XC: Using Perdew-Wang parametrisation of Ceperley-Alder LDA.
  Found k-point grid:         4         4         4
  Convergence accuracy of self-consistent charge density:  0.1000E-05
  Scalar relativistic treatment of kinetic energy: on-site free-atom approximation to ZORA.
  Requested output level: MD_light
  Using external wrapper (i-PI) for performing (path integral) molecular dynamics
  **Attention: initial geometry.in file will be ignored!

  Reading configuration options for species Si                  .
  | Found nuclear charge :  14.0000
  | Found atomic mass :    28.085500000000000      amu
  | Found l_max for Hartree potential  :   4
  | Found cutoff potl. onset [A], width [A], scale factor :    3.50000    1.50000    1.00000
  | Threshold for basis-dependent cutoff potential is   0.100000E-03
  | Found data for basic radial integration grid :    42 points, outermost radius =    5.000 A
  | Found multiplier for basic radial grid :   1
  | Found angular grid specification: user-specified.
  | Specified grid contains     5 separate shells.
  | Check grid settings after all constraints further below.
  | Found free-atom valence shell :  3 s   2.000
  | Found free-atom valence shell :  3 p   2.000
  | Found free-ion valence shell :  3 s   1.000
  | Found free-ion valence shell :  3 p   1.000
  | Found hydrogenic basis function :  3 d   4.200
  | Found hydrogenic basis function :  2 p   1.400
  | Found hydrogenic basis function :  4 f   6.200
  | Found ionic basis function :  3 s , default cutoff radius.
  Species Si                  : Missing cutoff potential type.
  Defaulting to exp(1/x)/(1-x)^2 type cutoff potential.
  Species Si: No 'logarithmic' tag. Using default grid for free atom:
  | Default logarithmic grid data [bohr] : 0.1000E-03 0.1000E+03 0.1012E+01
  | Will include ionic basis functions of  2.0-fold positive Si                   ion.
  Species Si: On-site basis accuracy parameter (for Gram-Schmidt orthonormalisation) not specified.
  Using default value basis_acc =  0.1000000E-03.
  Species Si                  : Using default innermost maximum threshold i_radial=  2 for radial functions.
  Species Si                  : Default cutoff onset for free atom density etc. : 0.35000000E+01 AA.
  Species Si                  : Basic radial grid will be enhanced according to radial_multiplier =   1, to contain    42 grid points.

  Finished reading input file 'control.in'.

------------------------------------------------------------


------------------------------------------------------------
          Reading geometry description geometry.in.
------------------------------------------------------------
  | The smallest distance between any two atoms is         2.26210047 AA.
  | The first atom of this pair is atom number                      3 .
  | The second atom of this pair is atom number                     5 .
  | Wigner-Seitz cell of the first atom image           0     0     1 .
  | (The Wigner-Seitz cell of the second atom is 0 0 0  by definition.)

  Symmetry information by spglib:
  | Precision set to  0.1E-04
  | Number of Operations  : 1
  | Space group           : 1
  | International         : P1
  | Schoenflies           : C1^1
  Input structure read successfully.
  The structure contains        8 atoms,  and a total of        112.000 electrons.

  Input geometry:
  | Unit cell:
  |        5.40883259        0.00000000        0.00000000
  |        0.00000000        5.40883257        0.00000000
  |        0.00000000        0.00000000        5.40883257
  | Atomic structure:
  |       Atom                x [A]            y [A]            z [A]
  |    1: Species Si            0.20381745       -0.00146931        0.16737668
  |    2: Species Si           -0.07921134        2.56461770        2.71828967
  |    3: Species Si            2.65669449        0.07081356        2.71824871
  |    4: Species Si            2.61357548        2.83861914       -0.12579088
  |    5: Species Si            1.48269826        1.45427223        1.36736994
  |    6: Species Si            1.16629777        4.04255033        3.97556098
  |    7: Species Si            4.02281067        1.22759677        4.12240425
  |    8: Species Si            4.15981499        4.02949731        1.28303837

  Lattice parameters for 3D lattice (in Angstroms) :     5.408833    5.408833    5.408833
  Angle(s) between unit vectors (in degrees)       :    90.000000   90.000000   90.000000


  Quantities derived from the lattice vectors (in Angstrom^-1):
  | Reciprocal lattice vector 1:  1.161653 -0.000000 -0.000000
  | Reciprocal lattice vector 2: -0.000000  1.161653 -0.000000
  | Reciprocal lattice vector 3: -0.000000 -0.000000  1.161653
  | Unit cell volume                               :   0.158238E+03  Angstrom^3

  Slab Identifier: This seems to be a bulk system.

  Finished reading input file 'geometry.in'.



  Consistency checks for stacksize environment parameter are next.

  | Maximum stacksize for task 0: 63 [Mb]
  | Maximum stacksize for task 1: 63 [Mb]
  | Maximum stacksize for task 2: 63 [Mb]
  | Maximum stacksize for task 3: 63 [Mb]
  | Maximum stacksize for task 4: 63 [Mb]
  | Maximum stacksize for task 5: 63 [Mb]
  | Maximum stacksize for task 6: 63 [Mb]
  | Maximum stacksize for task 7: 63 [Mb]
   *** Stacksize is not set to unlimited. This might cause problems...
  | Current stacksize for task 0: 63 [Mb]
  | Current stacksize for task 1: 63 [Mb]
  | Current stacksize for task 2: 63 [Mb]
  | Current stacksize for task 3: 63 [Mb]
  | Current stacksize for task 4: 63 [Mb]
  | Current stacksize for task 5: 63 [Mb]
  | Current stacksize for task 6: 63 [Mb]
  | Current stacksize for task 7: 63 [Mb]

  Consistency checks for the contents of control.in are next.

  MPI_IN_PLACE appears to work with this MPI implementation.
  | Keeping use_mpi_in_place .true. (see manual).
  Target number of points in a grid batch is not set. Defaulting to  100
  Method for grid partitioning is not set. Defaulting to parallel hash+maxmin partitioning.
  Batch size limit is not set. Defaulting to    200
  By default, will store active basis functions for each batch.
  If in need of memory, prune_basis_once .false. can be used to disable this option.
  communication_type for Hartree potential was not specified.
  Defaulting to calc_hartree .
  Defaulting to Pulay charge density mixer.
  Pulay mixer: Number of relevant iterations not set.
  Defaulting to    8 iterations.
  Pulay mixer: Number of initial linear mixing iterations not set.
  Defaulting to    0 iterations.
  Work space size for distributed Hartree potential not set.
  Defaulting to   0.200000E+03 MB.
  Mixing parameter for charge density mixing has not been set.
  Using default: charge_mix_param =     0.0500.
  The mixing parameter will be adjusted in iteration number     2 of the first full s.c.f. cycle only.
  Algorithm-dependent basis array size parameters:
  | n_max_pulay                         :        8
  Maximum number of self-consistency iterations not provided.
  Presetting  1000 iterations.
  Presetting      1001 iterations before the initial mixing cycle
  is restarted anyway using the sc_init_iter criterion / keyword.
  Presetting a factor      1.000 between actual scf density residual
  and density convergence criterion sc_accuracy_rho below which sc_init_iter
  takes no effect.
  Calculation of forces was not defined in control.in. No forces will be calculated.
  Geometry relaxation not requested: no relaxation will be performed.
  Force calculation: scf convergence accuracy of forces not set.
  Defaulting to 'sc_accuracy_forces not_checked'.
  Handling of forces: Unphysical translation and rotation will be removed from forces.
  No accuracy limit for integral partition fn. given. Defaulting to  0.1000E-14.
  No threshold value for u(r) in integrations given. Defaulting to  0.1000E-05.
  No occupation type (smearing scheme) given. Defaulting to Gaussian broadening, width =  0.1000E-01 eV.
  The width will be adjusted in iteration number     2 of the first full s.c.f. cycle only.
  S.C.F. convergence parameters will be adjusted in iteration number     2 of the first full s.c.f. cycle only.
  No accuracy for occupation numbers given. Defaulting to  0.1000E-12.
  No threshold value for occupation numbers given. Defaulting to  0.0000E+00.
  No accuracy for fermi level given. Defaulting to  0.1000E-19.
  Maximum # of iterations to find E_F not set. Defaulting to  200.
  Preferred method for the eigenvalue solver ('KS_method') not specified in 'control.in'.
  Defaulting to serial version, LAPACK (via ELSI), since more k-points than CPUs available.
  Will not use alltoall communication since running on < 1024 CPUs.
  Threshold for basis singularities not set.
  Default threshold for basis singularities:  0.1000E-04
  partition_type (choice of integration weights) for integrals was not specified.
  | Using a version of the partition function of Stratmann and coworkers ('stratmann_sparse').
  | At each grid point, the set of atoms used to build the partition table is smoothly restricted to
  | only those atoms whose free-atom density would be non-zero at that grid point.
  Partitioning for Hartree potential was not defined. Using partition_type for integrals.
  | Adjusted default value of keyword multip_moments_threshold to:       0.10000000E-11
  | This value may affect high angular momentum components of the Hartree potential in periodic systems.
  Spin handling was not defined in control.in. Defaulting to unpolarized case.
  No q(lm)/r^(l+1) cutoff set for long-range Hartree potential.
  | Using default value of  0.100000E-09 .
  | Verify using the multipole_threshold keyword.
  Defaulting to new monopole extrapolation.
  Density update method: automatic selection selected.
  Using density matrix based charge density update.
  Using density matrix based charge density update.
  Using packed matrix style: index .
  Defaulting to use time-reversal symmetry for k-point grid.
  Charge integration errors on the 3D integration grid will be compensated
  by explicit normalization and distribution of residual charges.
  Use the "compensate_multipole_errors" flag to change this behaviour.
  Set 'collect_eigenvectors' to be '.true.' for all serial calculations. This is mandatory.
  Set 'collect_eigenvectors' to be '.true.' for KS_method lapack_fast and serial.

  Consistency checks for the contents of geometry.in are next.


  Range separation radius for Ewald summation (hartree_convergence_parameter):      3.87147161 bohr.
  Number of empty states per atom not set in control.in - providing a guess from actual geometry.
  | Total number of empty states used during s.c.f. cycle:       24
  If you use a very high smearing, use empty_states (per atom!) in control.in to increase this value.

  Structure-dependent array size parameters: 
  | Maximum number of distinct radial functions  :        9
  | Maximum number of basis functions            :      200
  | Number of Kohn-Sham states (occupied + empty):       80
------------------------------------------------------------

************************** W A R N I N G *******************************
* You are using the PIMD wrapper. Specifications and positions         *
* in geometry.in will be IGNORED - all is received from the wrapper.   *
* Please make sure species are declared in the same order in           *
* geometry.in and wrapper input.                                       *
************************************************************************


  Performing system and environment tests:
  | Environment variable OMP_NUM_THREADS correctly set to 1.
  | Checking for ScaLAPACK...
  | Testing pdtran()...
  | All pdtran() tests passed.

------------------------------------------------------------
          Preparing all fixed parts of the calculation.
------------------------------------------------------------
  Determining machine precision:
     2.2250738585072014E-308
  Setting up grids for atomic and cluster calculations.

  Creating wave function, potential, and density for free atoms.
  Runtime choices for atomic solver:
  | atomic solver xc        : PW-LDA
  | compute density gradient: 0
  | compute kinetic density : F

  Species: Si

  List of occupied orbitals and eigenvalues:
    n    l              occ      energy [Ha]    energy [eV]
    1    0           2.0000       -65.491668     -1782.1190
    2    0           2.0000        -5.087967      -138.4506
    3    0           2.0000        -0.391471       -10.6525
    2    1           6.0000        -3.502246       -95.3010
    3    1           2.0000        -0.143943        -3.9169


  Adding cutoff potential to free-atom effective potential.
  Creating fixed part of basis set: Ionic, confined, hydrogenic.

  Si                   ion:

  List of free ionic orbitals and eigenvalues:
    n    l      energy [Ha]    energy [eV]
    1    0       -66.364436     -1805.8682
    2    0        -5.935799      -161.5213
    3    0        -1.078166       -29.3384
    2    1        -4.351123      -118.4001
    3    1        -0.781733       -21.2720


  List of ionic basis orbitals and eigenvalues:
    n    l      energy [Ha]    energy [eV]    outer radius [A]
    3    0        -1.078146       -29.3378       4.214062


  Si                   hydrogenic:

  List of hydrogenic basis orbitals: 
    n    l      effective z      eigenvalue [eV]  inner max. [A]     outer max. [A]     outer radius [A]   
    3    2         4.200000       -26.6624           1.139231           1.139231           4.534782
    2    1         1.400000        -6.4613           1.472672           1.472672           4.590560
    4    3         6.200000       -32.6778           1.368518           1.368518           4.534782

  Creating atomic-like basis functions for current effective potential.

  Species Si                  :

  List of atomic basis orbitals and eigenvalues:
    n    l      energy [Ha]    energy [eV]    outer radius [A]
    1    0       -65.491668     -1782.1190       0.789468
    2    0        -5.087967      -138.4506       2.815114
    3    0        -0.391471       -10.6525       4.534782
    2    1        -3.502246       -95.3010       3.259919
    3    1        -0.143943        -3.9169       4.590560

  Assembling full basis from fixed parts.
  | Species Si :   atomic orbital   1 s accepted.
  | Species Si :   atomic orbital   2 s accepted.
  | Species Si :    ionic orbital   3 s accepted.
  | Species Si :   atomic orbital   3 s accepted.
  | Species Si :   atomic orbital   2 p accepted.
  | Species Si :   atomic orbital   3 p accepted.
  | Species Si :    hydro orbital   2 p accepted.
  | Species Si :    hydro orbital   3 d accepted.
  | Species Si :    hydro orbital   4 f accepted.

  Basis size parameters after reduction:
  | Total number of radial functions:        9
  | Total number of basis functions :      200

  Per-task memory consumption for arrays in subroutine allocate_ext:
  |           3.106072MB.
  Testing on-site integration grid accuracy.
  |  Species  Function  <phi|h_atom|phi> (log., in eV)  <phi|h_atom|phi> (rad., in eV)
           1        1              -1782.1189727076              -1782.1182429251
           1        2               -138.4506350693               -138.4506310079
           1        3                -10.3030408815                -10.3029120678
           1        4                  5.0238999146                  4.9457540310 ***
           1        5                -95.3009689499                -95.3009689315
           1        6                 -3.9266496564                 -3.9420918374
           1        7                  6.3453628447                  6.1632372158 ***
           1        8                  6.2883050744                  6.2861881409
           1        9                 19.3222464920                 19.3177041052
 * Note: Onsite integrals marked "***" above are less accurate than
 * onsite_accuracy_threshold =    0.03000 eV. Usually, this is harmless.
 * When in doubt, tighten the "radial" and/or "radial_multiplier" flags to check.

  Preparing densities etc. for the partition functions (integrals / Hartree potential).

  Preparations completed.
  max(cpu_time)          :      0.088 s.
  Wall clock time (cpu1) :      0.088 s.
------------------------------------------------------------

  Initializing index lists of integration centers etc. from given atomic structure:
  Mapping all atomic coordinates to central unit cell.

  Initializing the k-points
  Using symmetry for reducing the k-points
  | k-points reduced from:       64 to       36
  | Number of k-points                             :        36
  The eigenvectors in the calculations are COMPLEX.
  | K-points in task   0:         4
  | K-points in task   1:         5
  | K-points in task   2:         5
  | K-points in task   3:         5
  | K-points in task   4:         5
  | K-points in task   5:         4
  | K-points in task   6:         4
  | K-points in task   7:         4
  | Number of basis functions in the Hamiltonian integrals :      3130
  | Number of basis functions in a single unit cell        :       200
  | Number of centers in hartree potential         :      1010
  | Number of centers in hartree multipole         :       495
  | Number of centers in electron density summation:       330
  | Number of centers in basis integrals           :       349
  | Number of centers in integrals                 :       143
  | Number of centers in hamiltonian               :       330
  | Consuming         42 KiB for k_phase.
  | Number of super-cells (origin) [n_cells]                     :         729
  | Number of super-cells (after PM_index) [n_cells]             :          76
  | Number of super-cells in hamiltonian [n_cells_in_hamiltonian]:          76
  | Size of matrix packed + index [n_hamiltonian_matrix_size] :      354182
* Skipping the SCF initialization for now - done inside wrapper      *
  @ DRIVER MODE: Connecting to host:port localhost       10004
  @ DRIVER MODE: Message from server: STATUS      
  @ DRIVER MODE: Message from server: POSDATA     
  @ DRIVER MODE: Received positions 

  Initializing index lists of integration centers etc. from given atomic structure:
  Mapping all atomic coordinates to central unit cell.

  Initializing the k-points
  Using symmetry for reducing the k-points
  | k-points reduced from:       64 to       36
  | Number of k-points                             :        36
  The eigenvectors in the calculations are COMPLEX.
  | K-points in task   0:         4
  | K-points in task   1:         5
  | K-points in task   2:         5
  | K-points in task   3:         5
  | K-points in task   4:         5
  | K-points in task   5:         4
  | K-points in task   6:         4
  | K-points in task   7:         4
  | Number of basis functions in the Hamiltonian integrals :      3130
  | Number of basis functions in a single unit cell        :       200
  | Number of centers in hartree potential         :      1010
  | Number of centers in hartree multipole         :       495
  | Number of centers in electron density summation:       330
  | Number of centers in basis integrals           :       349
  | Number of centers in integrals                 :       143
  | Number of centers in hamiltonian               :       330
  | Consuming         42 KiB for k_phase.
  | Number of super-cells (origin) [n_cells]                     :         729
  | Number of super-cells (after PM_index) [n_cells]             :          76
  | Number of super-cells in hamiltonian [n_cells_in_hamiltonian]:          76
  | Size of matrix packed + index [n_hamiltonian_matrix_size] :      354182

------------------------------------------------------------
          Begin self-consistency loop: Initialization.

          Date     :  20250610, Time     :  152028.021
------------------------------------------------------------
  | Estimated reciprocal-space cutoff momentum G_max:         2.41181531 bohr^-1 .
  | Reciprocal lattice points for long-range Hartree potential:     250
  Partitioning the integration grid into batches with parallel hashing+maxmin method.
  | Number of batches:      605
  | Maximal batch size:     111
  | Minimal batch size:      50
  | Average batch size:      74.102
  | Standard deviation of batch sizes:      18.428

  Integration load balanced across     8 MPI tasks.
  Work distribution over tasks is as follows:
  Task     0 has       5543 integration points.
  Task     1 has       5633 integration points.
  Task     2 has       5597 integration points.
  Task     3 has       5626 integration points.
  Task     4 has       5593 integration points.
  Task     5 has       5632 integration points.
  Task     6 has       5628 integration points.
  Task     7 has       5580 integration points.
  Initializing partition tables, free-atom densities, potentials, etc. across the integration grid (initialize_grid_storage).
  | initialize_grid_storage: Actual outermost partition radius vs. multipole_radius_free
  | (-- VB: in principle, multipole_radius_free should be larger, hence this output)
  | Species        1: Confinement radius =              4.999999999999999 AA, multipole_radius_free =              5.000694715736543 AA.
  | Species        1: outer_partition_radius set to              5.000694715736543 AA .
  | The sparse table of interatomic distances needs        459.01 kbyte instead of       974.41 kbyte of memory.
  | Net number of integration points:    44832
  | of which are non-zero points    :    38961
  | Numerical average free-atom electrostatic potential    :    -13.29997517 eV
  Renormalizing the initial density to the exact electron count on the 3D integration grid.
  | Initial density: Formal number of electrons (from input files) :     112.0000000000
  | Integrated number of electrons on 3D grid     :     112.0013228278
  | Charge integration error                      :       0.0013228278
  | Normalization factor for density and gradient :       0.9999881892
  Renormalizing the free-atom superposition density to the exact electron count on the 3D integration grid.
  | Formal number of electrons (from input files) :     112.0000000000
  | Integrated number of electrons on 3D grid     :     112.0013228278
  | Charge integration error                      :       0.0013228278
  | Normalization factor for density and gradient :       0.9999881892
  Obtaining max. number of non-zero basis functions in each batch (get_n_compute_maxes).
  | Maximal number of non-zero basis functions:      686 in task     0
  | Maximal number of non-zero basis functions:      727 in task     1
  | Maximal number of non-zero basis functions:      719 in task     2
  | Maximal number of non-zero basis functions:      707 in task     3
  | Maximal number of non-zero basis functions:      687 in task     4
  | Maximal number of non-zero basis functions:      733 in task     5
  | Maximal number of non-zero basis functions:      711 in task     6
  | Maximal number of non-zero basis functions:      706 in task     7
  Allocating        0.977 MB for KS_eigenvector_complex
  Integrating Hamiltonian matrix: batch-based integration.
  Time summed over all CPUs for integration: real work        1.268 s, elapsed        1.475 s
  Integrating overlap matrix.
  Time summed over all CPUs for integration: real work        0.935 s, elapsed        1.003 s
  Decreasing sparse matrix size:
  | Tolerance:  0.1000E-12
  Hamiltonian matrix
  | Array has   325304 nonzero elements out of   354182 elements
  | Sparsity factor is 0.082
  Overlap matrix
  | Array has   312953 nonzero elements out of   354182 elements
  | Sparsity factor is 0.116
  New size of hamiltonian matrix:      325319

  Updating Kohn-Sham eigenvalues and eigenvectors using ELSI and the (modified) LAPACK eigensolver.

  Obtaining occupation numbers and electronic chemical potential using ELSI.
  | Note that, for insulating systems, the printed 'chemical potential' value is not uniquely defined.
  | It can be anywhere in the energy gap, as long as it correctly separates occupied and unoccupied states.
  | In systems with a gap, the physically relevant chemical potential is the VBM or HOMO.

  | Chemical potential (Fermi level):    -5.81113185 eV
  Writing Kohn-Sham eigenvalues.
  K-point:       1 at    0.000000    0.000000    0.000000 (in units of recip. lattice)

  State    Occupation    Eigenvalue [Ha]    Eigenvalue [eV]
      1       2.00000         -65.517713        -1782.82767
      2       2.00000         -65.515389        -1782.76443
      3       2.00000         -65.515218        -1782.75978
      4       2.00000         -65.514778        -1782.74782
      5       2.00000         -65.513433        -1782.71121
      6       2.00000         -65.512965        -1782.69848
      7       2.00000         -65.512139        -1782.67601
      8       2.00000         -65.511109        -1782.64799
      9       2.00000          -5.119453         -139.30740
     10       2.00000          -5.116747         -139.23376
     11       2.00000          -5.116520         -139.22758
     12       2.00000          -5.116011         -139.21374
     13       2.00000          -5.114418         -139.17040
     14       2.00000          -5.113881         -139.15577
     15       2.00000          -5.112896         -139.12899
     16       2.00000          -5.111688         -139.09611
     17       2.00000          -3.534000          -96.16503
     18       2.00000          -3.533507          -96.15162
     19       2.00000          -3.533280          -96.14543
     20       2.00000          -3.531671          -96.10165
     21       2.00000          -3.531422          -96.09488
     22       2.00000          -3.530890          -96.08040
     23       2.00000          -3.530604          -96.07262
     24       2.00000          -3.530428          -96.06783
     25       2.00000          -3.530308          -96.06457
     26       2.00000          -3.529994          -96.05601
     27       2.00000          -3.529839          -96.05182
     28       2.00000          -3.529661          -96.04696
     29       2.00000          -3.529364          -96.03887
     30       2.00000          -3.528637          -96.01909
     31       2.00000          -3.528575          -96.01742
     32       2.00000          -3.527830          -95.99715
     33       2.00000          -3.527722          -95.99419
     34       2.00000          -3.527502          -95.98823
     35       2.00000          -3.527427          -95.98618
     36       2.00000          -3.526832          -95.96998
     37       2.00000          -3.526583          -95.96321
     38       2.00000          -3.526386          -95.95783
     39       2.00000          -3.525892          -95.94441
     40       2.00000          -3.525093          -95.92265
     41       2.00000          -0.672642          -18.30352
     42       2.00000          -0.535508          -14.57191
     43       2.00000          -0.529756          -14.41541
     44       2.00000          -0.522341          -14.21363
     45       2.00000          -0.519004          -14.12282
     46       2.00000          -0.513046          -13.96070
     47       2.00000          -0.498656          -13.56911
     48       2.00000          -0.340071           -9.25382
     49       2.00000          -0.338672           -9.21574
     50       2.00000          -0.336839           -9.16585
     51       2.00000          -0.334473           -9.10147
     52       2.00000          -0.330133           -8.98339
     53       2.00000          -0.324477           -8.82948
     54       2.00000          -0.245564           -6.68213
     55       2.00000          -0.239337           -6.51269
     56       2.00000          -0.219117           -5.96247
     57       0.00000          -0.208014           -5.66034
     58       0.00000          -0.203656           -5.54175
     59       0.00000          -0.200371           -5.45237
     60       0.00000          -0.195658           -5.32412
     61       0.00000          -0.190617           -5.18694
     62       0.00000          -0.185534           -5.04864
     63       0.00000          -0.135892           -3.69780
     64       0.00000          -0.126531           -3.44309
     65       0.00000          -0.121932           -3.31793
     66       0.00000          -0.116951           -3.18240
     67       0.00000           0.053977            1.46878
     68       0.00000           0.062530            1.70151
     69       0.00000           0.063301            1.72251
     70       0.00000           0.132823            3.61431
     71       0.00000           0.134996            3.67342
     72       0.00000           0.141959            3.86291
     73       0.00000           0.147211            4.00582
     74       0.00000           0.150699            4.10073
     75       0.00000           0.166130            4.52062
     76       0.00000           0.169675            4.61709
     77       0.00000           0.174494            4.74822
     78       0.00000           0.175281            4.76963
     79       0.00000           0.182084            4.95476
     80       0.00000           0.187477            5.10152

  What follows are estimated values for band gap, HOMO, LUMO, etc.
  | They are estimated on a discrete k-point grid and not necessarily exact.
  | For converged numbers, create a DOS and/or band structure plot on a denser k-grid.

  Highest occupied state (VBM) at     -5.96247108 eV (relative to internal zero)
  | Occupation number:      2.00000000
  | K-point:       1 at    0.000000    0.000000    0.000000 (in units of recip. lattice)

  Lowest unoccupied state (CBM) at    -5.66033655 eV (relative to internal zero)
  | Occupation number:      0.00000000
  | K-point:       1 at    0.000000    0.000000    0.000000 (in units of recip. lattice)

  ESTIMATED overall HOMO-LUMO gap:      0.30213454 eV between HOMO at k-point 1 and LUMO at k-point 1
  | This appears to be a direct band gap.
  The gap value is above 0.2 eV. Unless you are using a very sparse k-point grid,
  this system is most likely an insulator or a semiconductor.
  Calculating total energy contributions from superposition of free atom densities.

  Total energy components:
  | Sum of eigenvalues            :       -1312.81149447 Ha      -35723.41835197 eV
  | XC energy correction          :        -158.69228629 Ha       -4318.23681930 eV
  | XC potential correction       :         209.65814676 Ha        5705.08844503 eV
  | Free-atom electrostatic energy:       -1053.11817770 Ha      -28656.80365723 eV
  | Hartree energy correction     :          -0.00000000 Ha          -0.00000000 eV
  | Entropy correction            :          -0.00000000 Ha          -0.00000000 eV
  | ---------------------------
  | Total energy                  :       -2314.96381169 Ha      -62993.37038347 eV
  | Total energy, T -> 0          :       -2314.96381169 Ha      -62993.37038347 eV  <-- do not rely on this value for anything but (periodic) metals
  | Electronic free energy        :       -2314.96381169 Ha      -62993.37038347 eV

  Derived energy quantities:
  | Kinetic energy                :        2318.91069300 Ha       63100.77048827 eV
  | Electrostatic energy          :       -4475.18221840 Ha     -121775.90405243 eV
  | Energy correction for multipole
  | error in Hartree potential    :           0.00000000 Ha           0.00000000 eV
  | Sum of eigenvalues per atom                           :       -4465.42729400 eV
  | Total energy (T->0) per atom                          :       -7874.17129793 eV  <-- do not rely on this value for anything but (periodic) metals
  | Electronic free energy per atom                       :       -7874.17129793 eV
  Initialize hartree_potential_storage
  Max. number of atoms included in rho_multipole:            8

  End scf initialization - timings             :  max(cpu_time)    wall_clock(cpu1)
  | Time for scf. initialization                :        0.599 s           0.613 s
  | Boundary condition initialization           :        0.026 s           0.027 s
  | Integration                                 :        0.309 s           0.315 s
  | Solution of K.-S. eqns.                     :        0.126 s           0.133 s
  | Grid partitioning                           :        0.034 s           0.034 s
  | Preloading free-atom quantities on grid     :        0.094 s           0.094 s
  | Free-atom superposition energy              :        0.029 s           0.029 s
  | Total energy evaluation                     :        0.000 s           0.000 s

  Partial memory accounting:
  | Current value for overall tracked memory usage:
  |   Minimum:        7.226 MB (on task 0)
  |   Maximum:        7.470 MB (on task 1)
  |   Average:        7.348 MB
  | Peak value for overall tracked memory usage:
  |   Minimum:       13.110 MB (on task 0 after allocating wave)
  |   Maximum:       13.900 MB (on task 1 after allocating wave)
  |   Average:       13.544 MB
  | Largest tracked array allocation so far:
  |   Minimum:        3.590 MB (hamiltonian_shell on task 0)
  |   Maximum:        4.099 MB (hamiltonian_shell on task 5)
  |   Average:        3.842 MB
  Note:  These values currently only include a subset of arrays which are explicitly tracked.
  The "true" memory usage will be greater.
------------------------------------------------------------
  Time for density update prior                :  max(cpu_time)    wall_clock(cpu1)
  | self-consistency iterative process          :        0.182 s           0.183 s
------------------------------------------------------------
Convergence:    q app. |  density  | eigen (eV) | Etot (eV) | forces (eV/A) |       CPU time |     Clock time
  SCF    1 :  0.22E-13 |  0.23E+00 |   0.48E+01 |  0.10E+00 |             . |        0.504 s |        0.511 s
  SCF    2 :  0.11E-12 |  0.21E+00 |   0.74E+02 |  0.67E+00 |             . |        0.561 s |        0.569 s
  SCF    3 : -0.25E-13 |  0.35E-01 |  -0.27E+02 |  0.44E-01 |             . |        0.526 s |        0.537 s
  SCF    4 :  0.45E-13 |  0.23E-01 |   0.32E+01 |  0.19E-02 |             . |        0.528 s |        0.550 s
  SCF    5 : -0.13E-13 |  0.10E-01 |  -0.40E+01 |  0.74E-02 |             . |        0.509 s |        0.522 s
  SCF    6 :  0.74E-13 |  0.40E-02 |  -0.59E+00 |  0.39E-03 |             . |        0.532 s |        0.540 s
  SCF    7 :  0.71E-13 |  0.36E-02 |  -0.39E+00 |  0.12E-02 |             . |        0.515 s |        0.515 s
  SCF    8 : -0.78E-13 |  0.13E-02 |  -0.50E-01 |  0.21E-04 |             . |        0.525 s |        0.531 s
  SCF    9 :  0.12E-12 |  0.12E-02 |   0.64E-01 |  0.16E-03 |             . |        0.507 s |        0.517 s
  SCF   10 :  0.60E-13 |  0.14E-03 |   0.63E-02 |  0.72E-05 |             . |        0.508 s |        0.517 s
  SCF   11 :  0.95E-13 |  0.36E-04 |   0.65E-02 |  0.11E-06 |             . |        0.516 s |        0.532 s
  SCF   12 :  0.57E-13 |  0.32E-04 |   0.64E-02 |  0.56E-05 |             . |        0.512 s |        0.517 s
  SCF   13 : -0.34E-13 |  0.10E-04 |   0.10E-03 |  0.29E-06 |             . |        0.550 s |        0.564 s
  SCF   14 :  0.94E-13 |  0.90E-05 |   0.24E-02 |  0.25E-05 |             . |        0.565 s |        0.599 s
  SCF   15 :  0.19E-13 |  0.19E-05 |  -0.12E-03 |  0.11E-06 |             . |        0.508 s |        0.523 s
  SCF   16 :  0.87E-13 |  0.19E-05 |  -0.43E-03 |  0.29E-06 |             . |        0.555 s |        0.574 s
  SCF   17 :  0.13E-13 |  0.16E-05 |  -0.21E-04 | -0.55E-07 |             . |        0.530 s |        0.538 s
  SCF   18 :  0.80E-13 |  0.15E-05 |  -0.90E-05 |  0.38E-07 |             . |        0.570 s |        0.577 s
  SCF   19 :  0.35E-14 |  0.14E-05 |   0.15E-03 |  0.12E-07 |             . |        0.511 s |        0.522 s
  SCF   20 :  0.10E-12 |  0.13E-05 |   0.96E-04 | -0.37E-07 |             . |        0.492 s |        0.504 s
  SCF   21 :  0.52E-14 |  0.11E-05 |  -0.40E-04 | -0.56E-07 |             . |        0.502 s |        0.513 s
  SCF   22 : -0.42E-13 |  0.94E-06 |   0.15E-04 | -0.17E-07 |             . |        0.538 s |        0.545 s
  SCF   23 :  0.91E-14 |  0.90E-06 |   0.20E-03 | -0.23E-07 |      0.14E+01 |        2.815 s |        2.879 s

  Total energy components:
  | Sum of eigenvalues            :       -1310.96788672 Ha      -35673.25123267 eV
  | XC energy correction          :        -158.83003740 Ha       -4321.98521778 eV
  | XC potential correction       :         209.83907769 Ha        5710.01182618 eV
  | Free-atom electrostatic energy:       -1053.11817770 Ha      -28656.80365723 eV
  | Hartree energy correction     :          -1.85630042 Ha         -50.51250459 eV
  | Entropy correction            :          -0.00001330 Ha          -0.00036181 eV
  | ---------------------------
  | Total energy                  :       -2314.93332455 Ha      -62992.54078608 eV
  | Total energy, T -> 0          :       -2314.93333784 Ha      -62992.54114789 eV  <-- do not rely on this value for anything but (periodic) metals
  | Electronic free energy        :       -2314.93335114 Ha      -62992.54150970 eV

  Derived energy quantities:
  | Kinetic energy                :        2318.28534876 Ha       63083.75400582 eV
  | Electrostatic energy          :       -4474.38863591 Ha     -121754.30957412 eV
  | Energy correction for multipole
  | error in Hartree potential    :           0.05375485 Ha           1.46274381 eV
  | Sum of eigenvalues per atom                           :       -4459.15640408 eV
  | Total energy (T->0) per atom                          :       -7874.06764349 eV  <-- do not rely on this value for anything but (periodic) metals
  | Electronic free energy per atom                       :       -7874.06768871 eV
  What follows are estimated values for band gap, HOMO, LUMO, etc.
  | They are estimated on a discrete k-point grid and not necessarily exact.
  | For converged numbers, create a DOS and/or band structure plot on a denser k-grid.

  Highest occupied state (VBM) at     -5.56751998 eV (relative to internal zero)
  | Occupation number:      1.47061966
  | K-point:       1 at    0.000000    0.000000    0.000000 (in units of recip. lattice)

  Lowest unoccupied state (CBM) at    -5.52303923 eV (relative to internal zero)
  | Occupation number:      0.52924863
  | K-point:       1 at    0.000000    0.000000    0.000000 (in units of recip. lattice)

  ESTIMATED overall HOMO-LUMO gap:      0.04448075 eV between HOMO at k-point 1 and LUMO at k-point 1
  | This appears to be a direct band gap.
  However, this system has fractional occupation numbers. Since we use a finite k-point grid,
  this material is metallic within the approximate finite broadening function (occupation_type)
  applied to determine the occupation numbers.

  | Chemical Potential                          :    -5.54528316 eV
  | Note that, for insulating systems, the printed 'chemical potential' value is not uniquely defined.
  | It can be anywhere in the energy gap, as long as it correctly separates occupied and unoccupied states.
  | In systems with a gap, the physically relevant chemical potential is the VBM or HOMO.

  Self-consistency cycle converged.

  Removing unitary transformations (pure translations, rotations) from forces on atoms.
  Atomic forces before filtering:
  | Net force on center of mass :   0.138247E-02 -0.125632E-02  0.656198E-02 eV/A
  Atomic forces after filtering:
  | Net force on center of mass :   0.178406E-15  0.267609E-15  0.000000E+00 eV/A

  Energy and forces in a compact form:
  | Total energy uncorrected      :         -0.629925407860787E+05 eV
  | Total energy corrected        :         -0.629925411478875E+05 eV  <-- do not rely on this value for anything but (periodic) metals
  | Electronic free energy        :         -0.629925415096963E+05 eV
  Total atomic forces (unitary forces cleaned) [eV/Ang]:
  |    1         -0.129971720528025E+01          0.233843366372169E+00         -0.118052813597412E+01
  |    2         -0.345550352026351E+00          0.165680054070107E+00         -0.365845000776961E+00
  |    3          0.694927068493772E+00         -0.189501476938002E+01         -0.296128819362903E+00
  |    4          0.140709932739362E+01         -0.569488140892266E+00          0.270297366756317E+00
  |    5         -0.245814727202077E+00          0.613854606139818E+00          0.328586218177628E-01
  |    6          0.798889605786611E+00          0.728725130617931E+00         -0.314836326397500E+00
  |    7          0.373214553821078E+00          0.570433476851622E+00          0.102468097846798E+01
  |    8         -0.138304827098641E+01          0.151966276220642E+00          0.829501315469428E+00

  Removing unitary transformations (pure translations, rotations) from forces on atoms.
  Atomic forces before filtering:
  | Net force on center of mass :   0.178406E-15  0.267609E-15  0.000000E+00 eV/A
  Atomic forces after filtering:
  | Net force on center of mass :   0.178406E-15  0.245308E-15  0.000000E+00 eV/A
  @ DRIVER - WARNING: the stress tensor will not be computed
 ------------------------------------------------------------------------
 Atomic structure that was used in the preceding time step of the wrapper
                         x [A]             y [A]             z [A]
  lattice_vector         5.40883258        0.00000000        0.00000000
  lattice_vector         0.00000000        5.40883257        0.00000000
  lattice_vector         0.00000000        0.00000000        5.40883257

            atom         0.20381745       -0.00146931        0.16737668  Si
            atom        -0.07921134        2.56461769        2.71828967  Si
            atom         2.65669449        0.07081356        2.71824871  Si
            atom         2.61357548        2.83861914       -0.12579088  Si
            atom         1.48269826        1.45427223        1.36736993  Si
            atom         1.16629777        4.04255032        3.97556098  Si
            atom         4.02281067        1.22759677        4.12240424  Si
            atom         4.15981499        4.02949730        1.28303837  Si
 ------------------------------------------------------------------------
  @ DRIVER MODE: Message from server: STATUS      
  @ DRIVER MODE: Message from server: GETFORCE    
  @ DRIVER MODE: Returning v,forces,stress 

------------------------------------------------------------------------------
  Final output of selected total energy values:

  The following output summarizes some interesting total energy values
  at the end of a run (AFTER all relaxation, molecular dynamics, etc.).

  | Total energy of the DFT / Hartree-Fock s.c.f. calculation      :         -62992.540786079 eV
  | Final zero-broadening corrected energy (caution - metals only) :         -62992.541147888 eV
  | For reference only, the value of 1 Hartree used in FHI-aims is :             27.211384500 eV
  | For reference only, the overall average (free atom contribution
  | + realspace contribution) of the electrostatic potential after
  | s.c.f. convergence is                                          :            -13.025700169 eV

  Before relying on these values, please be sure to understand exactly which
  total energy value is referred to by a given number. Different objects may
  all carry the same name 'total energy'. Definitions:

  Total energy of the DFT / Hartree-Fock s.c.f. calculation:
  | Note that this energy does not include ANY quantities calculated after the
  | s.c.f. cycle, in particular not ANY RPA, MP2, etc. many-body perturbation terms.

  Final zero-broadening corrected energy:
  | For metallic systems only, a broadening of the occupation numbers at the Fermi
  | level can be extrapolated back to zero broadening by an electron-gas inspired
  | formula. For all systems that are not real metals, this value can be
  | meaningless and should be avoided.

------------------------------------------------------------------------------
  Methods described in the following list of references were used in this FHI-aims run.
  If you publish the results, please make sure to cite these reference if they apply.
  FHI-aims is an academic code, and for our developers (often, Ph.D. students
  and postdocs), scientific credit in the community is essential.
  Thank you for helping us!

  For any use of FHI-aims, please cite:

    Volker Blum, Ralf Gehrke, Felix Hanke, Paula Havu, Ville Havu,
    Xinguo Ren, Karsten Reuter, and Matthias Scheffler
    'Ab initio molecular simulations with numeric atom-centered orbitals'
    Computer Physics Communications 180, 2175-2196 (2009)
    http://doi.org/10.1016/j.cpc.2009.06.022


  The provided symmetry information was generated with SPGlib:

    Atsushi Togo, Yusuke Seto, Dimitar Pashov
    SPGlib 1.7.3 obtained from http://spglib.sourceforge.net
    Licence: New BSD license
    Copyright (C) 2008 Atsushi Togo


  The ELSI infrastructure was used in your run to solve the Kohn-Sham electronic structure.
  Please check out http://elsi-interchange.org to learn more.
  If scalability is important for your project, please acknowledge ELSI by citing:

    V. W-z. Yu, F. Corsetti, A. Garcia, W. P. Huhn, M. Jacquelin, W. Jia,
    B. Lange, L. Lin, J. Lu, W. Mi, A. Seifitokaldani, A. Vazquez-Mayagoitia,
    C. Yang, H. Yang, and V. Blum
    'ELSI: A unified software interface for Kohn-Sham electronic structure solvers'
    Computer Physics Communications 222, 267-285 (2018).
    http://doi.org/10.1016/j.cpc.2017.09.007


  For the real-space grid partitioning and parallelization used in this calculation, please cite:

    Ville Havu, Volker Blum, Paula Havu, and Matthias Scheffler,
    'Efficient O(N) integration for all-electron electronic structure calculation'
    'using numerically tabulated basis functions'
    Journal of Computational Physics 228, 8367-8379 (2009).
    http://doi.org/10.1016/j.jcp.2009.08.008

  Of course, there are many other important community references, e.g., those cited in the
  above references. Our list is limited to references that describe implementations in the
  FHI-aims code. The reason is purely practical (length of this list) - please credit others as well.

------------------------------------------------------------
          Leaving FHI-aims.
          Date     :  20250610, Time     :  152043.637

          Computational steps:
          | Number of self-consistency cycles          :           23
          | Number of SCF (re)initializations          :            1

          Detailed time accounting                     :  max(cpu_time)    wall_clock(cpu1)
          | Total time                                  :       15.259 s          15.801 s
          | Preparation time                            :        0.088 s           0.088 s
          | Boundary condition initalization            :        0.026 s           0.027 s
          | Grid partitioning                           :        0.034 s           0.034 s
          | Preloading free-atom quantities on grid     :        0.094 s           0.094 s
          | Free-atom superposition energy              :        0.029 s           0.029 s
          | Total time for integrations                 :        4.584 s           4.667 s
          | Total time for solution of K.-S. equations  :        1.862 s           1.881 s
          | Total time for density & force components   :        6.021 s           6.010 s
          | Total time for mixing                       :        0.008 s           0.010 s
          | Total time for Hartree multipole update     :        0.029 s           0.029 s
          | Total time for Hartree multipole sum        :        2.041 s           2.052 s
          | Total time for total energy evaluation      :        0.002 s           0.005 s
          | Total time NSC force correction             :        0.569 s           0.667 s
          | Total time for scaled ZORA corrections      :        0.000 s           0.000 s

          Partial memory accounting:
          | Residual value for overall tracked memory usage across tasks:     0.000000 MB (should be 0.000000 MB)
          | Peak values for overall tracked memory usage:
          |   Minimum:       19.756 MB (on task 0 after allocating d_wave)
          |   Maximum:       20.942 MB (on task 1 after allocating d_wave)
          |   Average:       20.418 MB
          | Largest tracked array allocation:
          |   Minimum:        3.590 MB (hamiltonian_shell on task 0)
          |   Maximum:        4.099 MB (hamiltonian_shell on task 5)
          |   Average:        3.842 MB
          Note:  These values currently only include a subset of arrays which are explicitly tracked.
          The "true" memory usage will be greater.

          Have a nice day.
------------------------------------------------------------
