
     Program PWSCF v.7.2 starts on 21May2025 at 20:49:15 

     This program is part of the open-source Quantum ESPRESSO suite
     for quantum simulation of materials; please cite
         "P. Giannozzi et al., J. Phys.:Condens. Matter 21 395502 (2009);
         "P. Giannozzi et al., J. Phys.:Condens. Matter 29 465901 (2017);
         "P. Giannozzi et al., J. Chem. Phys. 152 154105 (2020);
          URL http://www.quantum-espresso.org", 
     in publications or presentations arising from this work. More details at
     http://www.quantum-espresso.org/quote

     Parallel version (MPI & OpenMP), running on       1 processor cores
     Number of MPI processes:                 1
     Threads/MPI process:                     1

     MPI processes distributed on     1 nodes
     50278 MiB available memory on the printing compute node when the environment starts

     Reading input from pw.graphene.scf.in

     Current dimensions of program PWSCF are:
     Max number of different atomic species (ntypx) = 10
     Max number of k-points (npk) =  40000
     Max angular momentum in pseudopotentials (lmaxx) =  4
     file C.pbe-rrkjus.UPF: wavefunction(s)  2S 2P renormalized

     Subspace diagonalization in iterative solution of the eigenvalue problem:
     a serial algorithm will be used


     G-vector sticks info
     --------------------
     sticks:   dense  smooth     PW     G-vecs:    dense   smooth      PW
     Sum         595     241     85                35435     8973    1713

     Using Slab Decomposition



     bravais-lattice index     =            4
     lattice parameter (alat)  =       4.6540  a.u.
     unit-cell volume          =     261.8973 (a.u.)^3
     number of atoms/cell      =            2
     number of atomic types    =            1
     number of electrons       =         8.00
     number of Kohn-Sham states=            4
     kinetic-energy cutoff     =      40.0000  Ry
     charge density cutoff     =     400.0000  Ry
     scf convergence threshold =      1.0E-08
     mixing beta               =       0.7000
     number of iterations used =            8  plain     mixing
     Exchange-correlation=  SLA  PW   PBE  PBE
                           (   1   4   3   4   0   0   0)

     celldm(1)=   4.654000  celldm(2)=   0.000000  celldm(3)=   3.000000
     celldm(4)=   0.000000  celldm(5)=   0.000000  celldm(6)=   0.000000

     crystal axes: (cart. coord. in units of alat)
               a(1) = (   1.000000   0.000000   0.000000 )  
               a(2) = (  -0.500000   0.866025   0.000000 )  
               a(3) = (   0.000000   0.000000   3.000000 )  

     reciprocal axes: (cart. coord. in units 2 pi/alat)
               b(1) = (  1.000000  0.577350 -0.000000 )  
               b(2) = (  0.000000  1.154701  0.000000 )  
               b(3) = (  0.000000 -0.000000  0.333333 )  


     PseudoPot. # 1 for C  read from file:
     ../pseudo/C.pbe-rrkjus.UPF
     MD5 check sum: 00fb224312de0c5b6853bd333518df6f
     Pseudo is Ultrasoft, Zval =  4.0
     Generated by new atomic code, or converted to UPF format
     Using radial grid of  627 points,  4 beta functions with: 
                l(1) =   0
                l(2) =   0
                l(3) =   1
                l(4) =   1
     Q(r) pseudized with 0 coefficients 


     atomic species   valence    mass     pseudopotential
        C              4.00    12.01070     C ( 1.00)

     24 Sym. Ops., with inversion, found (12 have fractional translation)



   Cartesian axes

     site n.     atom                  positions (alat units)
         1           C   tau(   1) = (   0.0000000   0.0000000   0.0000000  )
         2           C   tau(   2) = (   0.0000000   0.5773503   0.0000000  )

     number of k points=    12
                       cart. coord. in units 2pi/alat
        k(    1) = (   0.0000000   0.0000000   0.0000000), wk =   0.0246914
        k(    2) = (   0.0000000   0.1283001   0.0000000), wk =   0.1481481
        k(    3) = (   0.0000000   0.2566001   0.0000000), wk =   0.1481481
        k(    4) = (   0.0000000   0.3849002   0.0000000), wk =   0.1481481
        k(    5) = (   0.0000000   0.5132002   0.0000000), wk =   0.1481481
        k(    6) = (   0.1111111   0.1924501   0.0000000), wk =   0.1481481
        k(    7) = (   0.1111111   0.3207501   0.0000000), wk =   0.2962963
        k(    8) = (   0.1111111   0.4490502   0.0000000), wk =   0.2962963
        k(    9) = (   0.1111111   0.5773503   0.0000000), wk =   0.1481481
        k(   10) = (   0.2222222   0.3849002   0.0000000), wk =   0.1481481
        k(   11) = (   0.2222222   0.5132002   0.0000000), wk =   0.2962963
        k(   12) = (   0.3333333   0.5773503   0.0000000), wk =   0.0493827

     Dense  grid:    35435 G-vectors     FFT dimensions: (  30,  30,  90)

     Smooth grid:     8973 G-vectors     FFT dimensions: (  24,  24,  60)

     Estimated max dynamical RAM per process >      46.04 MB

     Initial potential from superposition of free atoms

     starting charge       7.9999, renormalised to       8.0000
     Starting wfcs are    8 randomized atomic wfcs

     total cpu time spent up to now is        0.7 secs

     Self-consistent Calculation

     iteration #  1     ecut=    40.00 Ry     beta= 0.70
     Davidson diagonalization with overlap
     ethr =  1.00E-02,  avg # of iterations =  2.0

     total cpu time spent up to now is        0.8 secs

     total energy              =     -22.76435395 Ry
     estimated scf accuracy    <       0.19290637 Ry

     iteration #  2     ecut=    40.00 Ry     beta= 0.70
     Davidson diagonalization with overlap
     ethr =  2.41E-03,  avg # of iterations =  2.0

     total cpu time spent up to now is        0.8 secs

     total energy              =     -22.78866359 Ry
     estimated scf accuracy    <       0.00242961 Ry

     iteration #  3     ecut=    40.00 Ry     beta= 0.70
     Davidson diagonalization with overlap
     ethr =  3.04E-05,  avg # of iterations =  2.1

     total cpu time spent up to now is        0.9 secs

     total energy              =     -22.78903793 Ry
     estimated scf accuracy    <       0.00014828 Ry

     iteration #  4     ecut=    40.00 Ry     beta= 0.70
     Davidson diagonalization with overlap
     ethr =  1.85E-06,  avg # of iterations =  2.6

     negative rho (up, down):  2.402E-08 0.000E+00

     total cpu time spent up to now is        1.0 secs

     total energy              =     -22.78907307 Ry
     estimated scf accuracy    <       0.00000096 Ry

     iteration #  5     ecut=    40.00 Ry     beta= 0.70
     Davidson diagonalization with overlap
     ethr =  1.20E-08,  avg # of iterations =  4.5

     negative rho (up, down):  4.517E-08 0.000E+00

     total cpu time spent up to now is        1.0 secs

     total energy              =     -22.78907505 Ry
     estimated scf accuracy    <       0.00000005 Ry

     iteration #  6     ecut=    40.00 Ry     beta= 0.70
     Davidson diagonalization with overlap
     ethr =  6.81E-10,  avg # of iterations =  2.3

     negative rho (up, down):  4.766E-08 0.000E+00

     total cpu time spent up to now is        1.1 secs

     End of self-consistent calculation

          k = 0.0000 0.0000 0.0000 (  1133 PWs)   bands (ev):

   -18.6259  -6.7387  -2.1784  -2.1784

          k = 0.0000 0.1283 0.0000 (  1120 PWs)   bands (ev):

   -18.3345  -6.3903  -3.2873  -2.7500

          k = 0.0000 0.2566 0.0000 (  1114 PWs)   bands (ev):

   -17.4660  -5.8259  -5.3631  -3.9033

          k = 0.0000 0.3849 0.0000 (  1118 PWs)   bands (ev):

   -16.0415  -8.7484  -4.9222  -3.7377

          k = 0.0000 0.5132 0.0000 (  1128 PWs)   bands (ev):

   -14.1368 -11.4892  -5.4852  -1.8939

          k = 0.1111 0.1925 0.0000 (  1133 PWs)   bands (ev):

   -17.7546  -5.7018  -4.8360  -3.8924

          k = 0.1111 0.3208 0.0000 (  1124 PWs)   bands (ev):

   -16.6079  -7.2775  -5.2725  -4.3657

          k = 0.1111 0.4491 0.0000 (  1117 PWs)   bands (ev):

   -14.9325 -10.0318  -6.1509  -2.5379

          k = 0.1111 0.5774 0.0000 (  1114 PWs)   bands (ev):

   -13.1883 -12.1751  -6.4500  -1.2019

          k = 0.2222 0.3849 0.0000 (  1105 PWs)   bands (ev):

   -15.2078  -8.7875  -7.2817  -2.7836

          k = 0.2222 0.5132 0.0000 (  1110 PWs)   bands (ev):

   -13.3585 -10.8991  -8.2776  -0.9075

          k = 0.3333 0.5774 0.0000 (  1137 PWs)   bands (ev):

   -11.6993 -11.6993  -9.6975   0.8964

     highest occupied level (ev):     0.8964

!    total energy              =     -22.78907506 Ry
     estimated scf accuracy    <          2.5E-09 Ry

     The total energy is the sum of the following terms:
     one-electron contribution =     -56.44037049 Ry
     hartree contribution      =      30.36140684 Ry
     xc contribution           =      -7.02076101 Ry
     ewald contribution        =      10.31064959 Ry

     convergence has been achieved in   6 iterations

     Writing all to output data dir ./tmp/Graphene_1x1_PBE.save/

     init_run     :      0.67s CPU      0.69s WALL (       1 calls)
     electrons    :      0.41s CPU      0.41s WALL (       1 calls)

     Called by init_run:
     wfcinit      :      0.17s CPU      0.17s WALL (       1 calls)
     potinit      :      0.27s CPU      0.27s WALL (       1 calls)
     hinit0       :      0.23s CPU      0.23s WALL (       1 calls)

     Called by electrons:
     c_bands      :      0.19s CPU      0.19s WALL (       6 calls)
     sum_band     :      0.09s CPU      0.10s WALL (       6 calls)
     v_of_rho     :      0.07s CPU      0.08s WALL (       7 calls)
     newd         :      0.06s CPU      0.06s WALL (       7 calls)
     mix_rho      :      0.00s CPU      0.00s WALL (       6 calls)

     Called by c_bands:
     init_us_2    :      0.01s CPU      0.01s WALL (     156 calls)
     init_us_2:cp :      0.01s CPU      0.01s WALL (     156 calls)
     cegterg      :      0.18s CPU      0.18s WALL (      72 calls)

     Called by *egterg:
     cdiaghg      :      0.00s CPU      0.00s WALL (     258 calls)
     h_psi        :      0.32s CPU      0.32s WALL (     270 calls)
     s_psi        :      0.00s CPU      0.00s WALL (     270 calls)
     g_psi        :      0.00s CPU      0.00s WALL (     186 calls)

     Called by h_psi:
     h_psi:calbec :      0.00s CPU      0.00s WALL (     270 calls)
     vloc_psi     :      0.31s CPU      0.31s WALL (     270 calls)
     add_vuspsi   :      0.00s CPU      0.00s WALL (     270 calls)

     General routines
     calbec       :      0.01s CPU      0.01s WALL (     342 calls)
     fft          :      0.22s CPU      0.23s WALL (      88 calls)
     ffts         :      0.25s CPU      0.25s WALL (      13 calls)
     fftw         :      0.30s CPU      0.30s WALL (    2154 calls)
     interpolate  :      0.26s CPU      0.26s WALL (       7 calls)

     Parallel routines

     PWSCF        :      1.10s CPU      1.18s WALL


   This run was terminated on:  20:49:16  21May2025            

=------------------------------------------------------------------------------=
   JOB DONE.
=------------------------------------------------------------------------------=
