
     Program PWSCF v.7.2 starts on 21May2025 at 20:49:39 

     This program is part of the open-source Quantum ESPRESSO suite
     for quantum simulation of materials; please cite
         "P. Giannozzi et al., J. Phys.:Condens. Matter 21 395502 (2009);
         "P. Giannozzi et al., J. Phys.:Condens. Matter 29 465901 (2017);
         "P. Giannozzi et al., J. Chem. Phys. 152 154105 (2020);
          URL http://www.quantum-espresso.org", 
     in publications or presentations arising from this work. More details at
     http://www.quantum-espresso.org/quote

     Parallel version (MPI & OpenMP), running on       1 processor cores
     Number of MPI processes:                 1
     Threads/MPI process:                     1

     MPI processes distributed on     1 nodes
     50274 MiB available memory on the printing compute node when the environment starts

     Reading input from pw.graphene.nscf.in

     Current dimensions of program PWSCF are:
     Max number of different atomic species (ntypx) = 10
     Max number of k-points (npk) =  40000
     Max angular momentum in pseudopotentials (lmaxx) =  4

     Atomic positions and unit cell read from directory:
     ./tmp/Graphene_1x1_PBE.save/

     file C.pbe-rrkjus.UPF: wavefunction(s)  2S 2P renormalized
     [opt_tetra]  Optimized tetrahedron method is used.

     Subspace diagonalization in iterative solution of the eigenvalue problem:
     a serial algorithm will be used


     G-vector sticks info
     --------------------
     sticks:   dense  smooth     PW     G-vecs:    dense   smooth      PW
     Sum         595     241     85                35435     8973    1713

     Using Slab Decomposition



     bravais-lattice index     =            4
     lattice parameter (alat)  =       4.6540  a.u.
     unit-cell volume          =     261.8973 (a.u.)^3
     number of atoms/cell      =            2
     number of atomic types    =            1
     number of electrons       =         8.00
     number of Kohn-Sham states=            8
     kinetic-energy cutoff     =      40.0000  Ry
     charge density cutoff     =     400.0000  Ry
     Exchange-correlation=  SLA  PW   PBE  PBE
                           (   1   4   3   4   0   0   0)

     celldm(1)=   4.654000  celldm(2)=   0.000000  celldm(3)=   3.000000
     celldm(4)=   0.000000  celldm(5)=   0.000000  celldm(6)=   0.000000

     crystal axes: (cart. coord. in units of alat)
               a(1) = (   1.000000   0.000000   0.000000 )  
               a(2) = (  -0.500000   0.866025   0.000000 )  
               a(3) = (   0.000000   0.000000   3.000000 )  

     reciprocal axes: (cart. coord. in units 2 pi/alat)
               b(1) = (  1.000000  0.577350 -0.000000 )  
               b(2) = (  0.000000  1.154701  0.000000 )  
               b(3) = (  0.000000 -0.000000  0.333333 )  


     PseudoPot. # 1 for C  read from file:
     ../pseudo/C.pbe-rrkjus.UPF
     MD5 check sum: 00fb224312de0c5b6853bd333518df6f
     Pseudo is Ultrasoft, Zval =  4.0
     Generated by new atomic code, or converted to UPF format
     Using radial grid of  627 points,  4 beta functions with: 
                l(1) =   0
                l(2) =   0
                l(3) =   1
                l(4) =   1
     Q(r) pseudized with 0 coefficients 


     atomic species   valence    mass     pseudopotential
        C              4.00    12.01070     C ( 1.00)

     24 Sym. Ops., with inversion, found (12 have fractional translation)



   Cartesian axes

     site n.     atom                  positions (alat units)
         1           C   tau(   1) = (   0.0000000   0.0000000   0.0000000  )
         2           C   tau(   2) = (   0.0000000   0.5773503   0.0000000  )

     number of k points=    27 (tetrahedron method)
                       cart. coord. in units 2pi/alat
        k(    1) = (   0.0000000   0.0000000   0.0000000), wk =   0.0088889
        k(    2) = (   0.0000000   0.0769800   0.0000000), wk =   0.0533333
        k(    3) = (   0.0000000   0.1539601   0.0000000), wk =   0.0533333
        k(    4) = (   0.0000000   0.2309401   0.0000000), wk =   0.0533333
        k(    5) = (   0.0000000   0.3079201   0.0000000), wk =   0.0533333
        k(    6) = (   0.0000000   0.3849002   0.0000000), wk =   0.0533333
        k(    7) = (   0.0000000   0.4618802   0.0000000), wk =   0.0533333
        k(    8) = (   0.0000000   0.5388603   0.0000000), wk =   0.0533333
        k(    9) = (   0.0666667   0.1154701   0.0000000), wk =   0.0533333
        k(   10) = (   0.0666667   0.1924501   0.0000000), wk =   0.1066667
        k(   11) = (   0.0666667   0.2694301   0.0000000), wk =   0.1066667
        k(   12) = (   0.0666667   0.3464102   0.0000000), wk =   0.1066667
        k(   13) = (   0.0666667   0.4233902   0.0000000), wk =   0.1066667
        k(   14) = (   0.0666667   0.5003702   0.0000000), wk =   0.1066667
        k(   15) = (   0.0666667   0.5773503   0.0000000), wk =   0.0533333
        k(   16) = (   0.1333333   0.2309401   0.0000000), wk =   0.0533333
        k(   17) = (   0.1333333   0.3079201   0.0000000), wk =   0.1066667
        k(   18) = (   0.1333333   0.3849002   0.0000000), wk =   0.1066667
        k(   19) = (   0.1333333   0.4618802   0.0000000), wk =   0.1066667
        k(   20) = (   0.1333333   0.5388603   0.0000000), wk =   0.1066667
        k(   21) = (   0.2000000   0.3464102   0.0000000), wk =   0.0533333
        k(   22) = (   0.2000000   0.4233902   0.0000000), wk =   0.1066667
        k(   23) = (   0.2000000   0.5003702   0.0000000), wk =   0.1066667
        k(   24) = (   0.2000000   0.5773503   0.0000000), wk =   0.0533333
        k(   25) = (   0.2666667   0.4618802   0.0000000), wk =   0.0533333
        k(   26) = (   0.2666667   0.5388603   0.0000000), wk =   0.1066667
        k(   27) = (   0.3333333   0.5773503   0.0000000), wk =   0.0177778

     Dense  grid:    35435 G-vectors     FFT dimensions: (  30,  30,  90)

     Smooth grid:     8973 G-vectors     FFT dimensions: (  24,  24,  60)

     Estimated max dynamical RAM per process >      35.48 MB

     The potential is recalculated from file :
     ./tmp/Graphene_1x1_PBE.save/charge-density


     negative rho (up, down):  4.766E-08 0.000E+00
     Starting wfcs are    8 randomized atomic wfcs

     Band Structure Calculation
     Davidson diagonalization with overlap

     ethr =  1.25E-10,  avg # of iterations = 29.3

     total cpu time spent up to now is        1.6 secs

     End of band structure calculation

          k = 0.0000 0.0000 0.0000 (  1133 PWs)   bands (ev):

   -18.6264  -6.7390  -2.1789  -2.1789   3.7812   7.1160   9.1905   9.1905

          k = 0.0000 0.0770 0.0000 (  1118 PWs)   bands (ev):

   -18.5214  -6.6133  -2.6005  -2.4009   3.9242   7.2530   9.2143   9.6239

          k = 0.0000 0.1540 0.0000 (  1122 PWs)   bands (ev):

   -18.2071  -6.2382  -3.7223  -2.9637   4.3535   7.6616   9.2304  10.0553

          k = 0.0000 0.2309 0.0000 (  1128 PWs)   bands (ev):

   -17.6857  -5.6208  -5.2628  -3.6676   5.0687   8.3197   9.1141   9.4952

          k = 0.0000 0.3079 0.0000 (  1110 PWs)   bands (ev):

   -16.9615  -6.9887  -4.7763  -4.3527   6.0679   7.6607   8.8877   9.3345

          k = 0.0000 0.3849 0.0000 (  1118 PWs)   bands (ev):

   -16.0420  -8.7489  -4.9228  -3.7380   5.8162   7.3456   8.6482  10.5147

          k = 0.0000 0.4619 0.0000 (  1120 PWs)   bands (ev):

   -14.9432 -10.4446  -5.3251  -2.5925   4.0642   8.4187   8.9425  11.9287

          k = 0.0000 0.5389 0.0000 (  1128 PWs)   bands (ev):

   -13.7410 -11.9549  -5.5322  -1.6348   2.7847   8.3342  10.7482  12.8166

          k = 0.0667 0.1155 0.0000 (  1117 PWs)   bands (ev):

   -18.3117  -6.3628  -3.3208  -2.8453   4.2105   7.5260   9.3640   9.9309

          k = 0.0667 0.1925 0.0000 (  1123 PWs)   bands (ev):

   -17.8939  -5.8663  -4.5631  -3.5694   4.7830   8.0663   9.5164  10.0598

          k = 0.0667 0.2694 0.0000 (  1122 PWs)   bands (ev):

   -17.2711  -6.1380  -5.1343  -4.3238   5.6407   8.4020   8.9405   9.4319

          k = 0.0667 0.3464 0.0000 (  1120 PWs)   bands (ev):

   -16.4491  -7.8505  -4.9824  -4.1885   6.6606   6.7810   9.2179   9.9622

          k = 0.0667 0.4234 0.0000 (  1117 PWs)   bands (ev):

   -15.4387  -9.5645  -5.4835  -3.0801   4.8659   8.1933   9.0100  11.2489

          k = 0.0667 0.5004 0.0000 (  1118 PWs)   bands (ev):

   -14.2696 -11.1791  -5.7946  -1.9621   3.2986   8.8335   9.9124  12.6912

          k = 0.0667 0.5774 0.0000 (  1124 PWs)   bands (ev):

   -13.3085 -12.2923  -5.8999  -1.3729   2.5533   8.7859  11.7768  11.9302

          k = 0.1333 0.2309 0.0000 (  1123 PWs)   bands (ev):

   -17.3746  -5.6574  -5.2544  -4.5282   5.4984   8.7335   8.7580  10.1796

          k = 0.1333 0.3079 0.0000 (  1121 PWs)   bands (ev):

   -16.6540  -7.0461  -5.4307  -4.4170   6.4979   7.2037   9.6481  10.4581

          k = 0.1333 0.3849 0.0000 (  1130 PWs)   bands (ev):

   -15.7404  -8.6321  -6.1021  -3.3858   5.5299   7.7777  10.3347  10.7740

          k = 0.1333 0.4619 0.0000 (  1115 PWs)   bands (ev):

   -14.6510 -10.2403  -6.5451  -2.2402   3.9006   9.3257  10.1680  12.0130

          k = 0.1333 0.5389 0.0000 (  1108 PWs)   bands (ev):

   -13.4643 -11.7041  -6.7665  -1.2602   2.6608  10.0448  11.1545  13.0373

          k = 0.2000 0.3464 0.0000 (  1127 PWs)   bands (ev):

   -15.8416  -8.0552  -6.6000  -3.4896   5.8015   7.6367  10.5954  11.6881

          k = 0.2000 0.4234 0.0000 (  1123 PWs)   bands (ev):

   -14.8466  -9.3350  -7.4169  -2.3952   4.3248   9.0500  11.5919  11.9392

          k = 0.2000 0.5004 0.0000 (  1110 PWs)   bands (ev):

   -13.7026 -10.7586  -7.8417  -1.2577   2.9354  10.7186  11.8141  12.2666

          k = 0.2000 0.5774 0.0000 (  1104 PWs)   bands (ev):

   -12.7704 -11.7999  -7.9739  -0.6083   2.1973  11.7364  12.4280  12.5063

          k = 0.2667 0.4619 0.0000 (  1107 PWs)   bands (ev):

   -13.7908 -10.1126  -8.5398  -1.2704   3.0785  10.5810  11.9494  13.5431

          k = 0.2667 0.5389 0.0000 (  1103 PWs)   bands (ev):

   -12.6533 -11.1582  -9.0794  -0.1895   1.9427  11.8345  12.3072  13.4463

          k = 0.3333 0.5774 0.0000 (  1137 PWs)   bands (ev):

   -11.6998 -11.6998  -9.6980   0.8960   0.8960  11.5850  13.6189  13.6189

     the Fermi energy is     0.8967 ev
     (compare with:     0.8964 eV, computed in scf)

     Writing all to output data dir ./tmp/Graphene_1x1_PBE.save/

     init_run     :      0.51s CPU      0.52s WALL (       1 calls)
     electrons    :      1.09s CPU      1.10s WALL (       1 calls)

     Called by init_run:
     wfcinit      :      0.00s CPU      0.00s WALL (       1 calls)
     potinit      :      0.26s CPU      0.27s WALL (       1 calls)
     hinit0       :      0.23s CPU      0.23s WALL (       1 calls)

     Called by electrons:
     c_bands      :      1.07s CPU      1.07s WALL (       1 calls)
     v_of_rho     :      0.01s CPU      0.01s WALL (       1 calls)
     newd         :      0.01s CPU      0.01s WALL (       1 calls)

     Called by c_bands:
     init_us_2    :      0.00s CPU      0.00s WALL (      27 calls)
     init_us_2:cp :      0.00s CPU      0.00s WALL (      27 calls)
     cegterg      :      0.87s CPU      0.88s WALL (      55 calls)

     Called by *egterg:
     cdiaghg      :      0.03s CPU      0.03s WALL (     817 calls)
     h_psi        :      0.92s CPU      0.93s WALL (     872 calls)
     s_psi        :      0.01s CPU      0.01s WALL (     872 calls)
     g_psi        :      0.01s CPU      0.01s WALL (     790 calls)

     Called by h_psi:
     h_psi:calbec :      0.02s CPU      0.02s WALL (     872 calls)
     vloc_psi     :      0.89s CPU      0.89s WALL (     872 calls)
     add_vuspsi   :      0.01s CPU      0.01s WALL (     872 calls)

     General routines
     calbec       :      0.02s CPU      0.02s WALL (     872 calls)
     fft          :      0.21s CPU      0.21s WALL (      12 calls)
     ffts         :      0.25s CPU      0.25s WALL (       1 calls)
     fftw         :      0.73s CPU      0.73s WALL (    8210 calls)
     interpolate  :      0.25s CPU      0.25s WALL (       1 calls)
     davcio       :      0.00s CPU      0.00s WALL (      54 calls)

     Parallel routines

     PWSCF        :      1.63s CPU      1.81s WALL


   This run was terminated on:  20:49:41  21May2025            

=------------------------------------------------------------------------------=
   JOB DONE.
=------------------------------------------------------------------------------=
