------------------------------------------------------------
          Invoking FHI-aims ...

          When using FHI-aims, please cite the following reference:

            Volker Blum, Ralf Gehrke, Felix Hanke, Paula Havu,
            Ville Havu, Xinguo Ren, Karsten Reuter, and Matthias Scheffler,
            'Ab Initio Molecular Simulations with Numeric Atom-Centered Orbitals',
            Computer Physics Communications 180, 2175-2196 (2009)

          In addition, many other developments in FHI-aims are likely important for
          your particular application. If so, please cite them. A partial list of references
          is written at the end of this file. Thank you for giving credit to the authors
          of these developments.

          For general information about FHI-aims please find us at

            https://fhi-aims.org

          Online tutorials can be found at

            https://fhi-aims-club.gitlab.io/tutorials/tutorials-overview/

          For any questions about FHI-aims, please visit our slack channel at

            https://fhi-aims.slack.com

          and our main development and support site at

            https://aims-git.rz-berlin.mpg.de .

          The latter site, in particular, has a wiki to collect information, as well
          as an issue tracker to log discussions, suggest improvements, and report issues
          or bugs. https://aims-git.rz-berlin.mpg.de is also the main development site
          of the project and all new and updated code versions can be obtained there.
          Please send an email to aims-coordinators@fhi-berlin.mpg.de and we will add
          you to these sites. They are for you and everyone is welcome there.

------------------------------------------------------------



  Date     :  20250610, Time     :  175100.724
  Time zero on CPU 1             :   0.260650000000000E-01  s.
  Internal wall clock time zero  :           518809860.724  s.

  FHI-aims created a unique identifier for this run for later identification
  aims_uuid : 6D43F4AC-D62F-441C-A038-F347379AE882

  Build configuration of the current instance of FHI-aims
  -------------------------------------------------------
  FHI-aims version      : 250320.1
  Commit number         : GITDIR-NOTFOUND
  CMake host system     : Linux-6.11.0-26-generic
  CMake version         : 3.28.3
  Fortran compiler      : /usr/bin/mpif90 (GNU) version 13.3.0
  Fortran compiler flags: -O3 -ffree-line-length-none -fallow-argument-mismatch
  C compiler            : /usr/bin/mpicc (GNU) version 13.3.0
  C compiler flags      : -O2
  C++ compiler          : /usr/bin/mpic++ (GNU) version 13.3.0
  C++ compiler flags    : -O2 -fPIE
  HIP compiler          :
  HIP compiler flags    :
  HIP GPU arch          :
  Using MPI
  Using ScaLAPACK
  Using LibXC
  Using i-PI
  Using RLSY
  Linking against: /usr/lib/x86_64-linux-gnu/liblapack.so
                   /usr/lib/x86_64-linux-gnu/libblas.so
                   /usr/lib/x86_64-linux-gnu/libscalapack-openmpi.so

  Using        6 parallel tasks.
  Task        0 on host 2f95f663cbc8 reporting.
  Task        1 on host 2f95f663cbc8 reporting.
  Task        2 on host 2f95f663cbc8 reporting.
  Task        3 on host 2f95f663cbc8 reporting.
  Task        4 on host 2f95f663cbc8 reporting.
  Task        5 on host 2f95f663cbc8 reporting.

  Obtaining array dimensions for all initial allocations:
  
  -----------------------------------------------------------------------
  Parsing control.in (first pass over file, find array dimensions only).
  The contents of control.in will be repeated verbatim below
  unless switched off by setting 'verbatim_writeout .false.' .
  in the first line of control.in .
  -----------------------------------------------------------------------
  
  #===============================================================================
  # FHI-aims file: ./control.in
  # Created using the Atomic Simulation Environment (ASE)
  # Tue Jun 10 17:51:00 2025
  #===============================================================================
  xc                                 pw-lda
  compute_forces                     .true.
  k_grid                             4 4 4
  sc_accuracy_rho                    1e-06
  relativistic                       atomic_zora scalar
  output_level                       MD_light
  use_pimd_wrapper                   localhost 10001
  #===============================================================================
  
  ################################################################################
  #
  #  FHI-aims code project
  #  VB, Fritz-Haber Institut, 2009
  #
  #  Suggested "light" defaults for Si atom (to be pasted into control.in file)
  #  Be sure to double-check any results obtained with these settings for post-processing,
  #  e.g., with the "tight" defaults and larger basis sets.
  #
  #  2020/09/08 Added f function to "light" after reinspection of Delta test outcomes.
  #             This was done for all of Al-Cl and is a tricky decision since it makes
  #             "light" calculations measurably more expensive for these elements.
  #             Nevertheless, outcomes for P, S, Cl (and to some extent, Si) appear
  #             to justify this choice.
  #
  ################################################################################
    species        Si
  #     global species definitions
      nucleus             14
      mass                28.0855
  #
      l_hartree           4
  #
      cut_pot             3.5          1.5  1.0
      basis_dep_cutoff    1e-4
  #
      radial_base         42 5.0
      radial_multiplier   1
      angular_grids       specified
        division   0.5866   50
        division   0.9616  110
        division   1.2249  194
        division   1.3795  302
  #      division   1.4810  434
  #      division   1.5529  590
  #      division   1.6284  770
  #      division   1.7077  974
  #      division   2.4068 1202
  #      outer_grid   974
        outer_grid 302
  ################################################################################
  #
  #  Definition of "minimal" basis
  #
  ################################################################################
  #     valence basis states
      valence      3  s   2.
      valence      3  p   2.
  #     ion occupancy
      ion_occ      3  s   1.
      ion_occ      3  p   1.
  ################################################################################
  #
  #  Suggested additional basis functions. For production calculations,
  #  uncomment them one after another (the most important basis functions are
  #  listed first).
  #
  #  Constructed for dimers: 1.75 A, 2.0 A, 2.25 A, 2.75 A, 3.75 A
  #
  ################################################################################
  #  "First tier" - improvements: -571.96 meV to -37.03 meV
       hydro 3 d 4.2
       hydro 2 p 1.4
       hydro 4 f 6.2
       ionic 3 s auto
  #  "Second tier" - improvements: -16.76 meV to -3.03 meV
  #     hydro 3 d 9
  #     hydro 5 g 9.4
  #     hydro 4 p 4
  #     hydro 1 s 0.65
  #  "Third tier" - improvements: -3.89 meV to -0.60 meV
  #     ionic 3 d auto
  #     hydro 3 s 2.6
  #     hydro 4 f 8.4
  #     hydro 3 d 3.4
  #     hydro 3 p 7.8
  #  "Fourth tier" - improvements: -0.33 meV to -0.11 meV
  #     hydro 2 p 1.6
  #     hydro 5 g 10.8
  #     hydro 5 f 11.2
  #     hydro 3 d 1
  #     hydro 4 s 4.5
  #  Further basis functions that fell out of the optimization - noise
  #  level... < -0.08 meV
  #     hydro 4 d 6.6
  #     hydro 5 g 16.4
  #     hydro 4 d 9
  
  -----------------------------------------------------------------------
  Completed first pass over input file control.in .
  -----------------------------------------------------------------------
  
  
  -----------------------------------------------------------------------
  Parsing geometry.in (first pass over file, find array dimensions only).
  The contents of geometry.in will be repeated verbatim below
  unless switched off by setting 'verbatim_writeout .false.' .
  in the first line of geometry.in .
  -----------------------------------------------------------------------
  
  #=======================================================
  # FHI-aims file: ./geometry.in
  # Created using the Atomic Simulation Environment (ASE)
  # Tue Jun 10 17:51:00 2025
  #=======================================================
  lattice_vector 5.2090248247871997 -0.0000000000000001 -0.0000000000000001
  lattice_vector -0.0000000000000001 5.2090248247871997 0.0000000000000001
  lattice_vector 0.0000000000000001 0.0000000000000001 5.2090248247871997
  atom_frac 0.0019197451224296 0.0000000000000000 0.0000000000000000 Si
  atom_frac 0.0000000000000000 0.5000000000000000 0.5000000000000000 Si
  atom_frac 0.5000000000000000 0.0000000000000000 0.5000000000000000 Si
  atom_frac 0.5000000000000000 0.5000000000000000 -0.0000000000000000 Si
  atom_frac 0.2500000000000000 0.2500000000000000 0.2500000000000000 Si
  atom_frac 0.2500000000000000 0.7500000000000001 0.7500000000000000 Si
  atom_frac 0.7500000000000000 0.2500000000000000 0.7500000000000001 Si
  atom_frac 0.7500000000000000 0.7500000000000001 0.2500000000000000 Si
  
  -----------------------------------------------------------------------
  Completed first pass over input file geometry.in .
  -----------------------------------------------------------------------
  

  Basic array size parameters:
  | Number of species                 :        1
  | Number of atoms                   :        8
  | Number of lattice vectors         :        3
  | Max. basis fn. angular momentum   :        3
  | Max. atomic/ionic basis occupied n:        3
  | Max. number of basis fn. types    :        3
  | Max. radial fns per species/type  :        5
  | Max. logarithmic grid size        :     1346
  | Max. radial integration grid size :       42
  | Max. angular integration grid size:      302
  | Max. angular grid division number :        8
  | Radial grid for Hartree potential :     1346
  | Number of spin channels           :        1

  Definition of standardized fundamental physical constants in this FHI-aims run:
  | Using the set of values used in FHI-aims up to 2024, which combines values from
  | different CODATA sets - see constants.f90.
  | Use the 'codata' keyword in control.in to change this selection.

  Memory overcommitment is allowed on your operating system.

------------------------------------------------------------
          Reading file control.in.
------------------------------------------------------------
  XC: Using Perdew-Wang parametrisation of Ceperley-Alder LDA.
  Forces will be computed.
  Found k-point grid:         4         4         4
  Convergence accuracy of self-consistent charge density:  0.1000E-05
  Scalar relativistic treatment of kinetic energy: on-site free-atom approximation to ZORA.
  Requested output level: MD_light
  Using external wrapper (i-PI) for performing (path integral) molecular dynamics
  **Attention: initial geometry.in file will be ignored!

  Reading configuration options for species Si                  .
  | Found nuclear charge :  14.0000
  | Found atomic mass :    28.085500000000000      amu
  | Found l_max for Hartree potential  :   4
  | Found cutoff potl. onset [A], width [A], scale factor :    3.50000    1.50000    1.00000
  | Threshold for basis-dependent cutoff potential is   0.100000E-03
  | Found data for basic radial integration grid :    42 points, outermost radius =    5.000 A
  | Found multiplier for basic radial grid :   1
  | Found angular grid specification: user-specified.
  | Specified grid contains     5 separate shells.
  | Check grid settings after all constraints further below.
  | Found free-atom valence shell :  3 s   2.000
  | Found free-atom valence shell :  3 p   2.000
  | Found free-ion valence shell :  3 s   1.000
  | Found free-ion valence shell :  3 p   1.000
  | Found hydrogenic basis function :  3 d   4.200
  | Found hydrogenic basis function :  2 p   1.400
  | Found hydrogenic basis function :  4 f   6.200
  | Found ionic basis function :  3 s , default cutoff radius.
  Species Si                  : Missing cutoff potential type.
  Defaulting to exp(1/x)/(1-x)^2 type cutoff potential.
  Species Si: No 'logarithmic' tag. Using default grid for free atom:
  | Default logarithmic grid data [bohr] : 0.1000E-03 0.1000E+03 0.1012E+01
  | Will include ionic basis functions of  2.0-fold positive Si                   ion.
  Species Si: On-site basis accuracy parameter (for Gram-Schmidt orthonormalisation) not specified.
  Using default value basis_acc =  0.1000000E-03.
  Species Si                  : Using default innermost maximum threshold i_radial=  2 for radial functions.
  Species Si                  : Default cutoff onset for free atom density etc. : 0.35000000E+01 AA.
  Species Si                  : Basic radial grid will be enhanced according to radial_multiplier =   1, to contain    42 grid points.

  Finished reading input file 'control.in'.

------------------------------------------------------------


------------------------------------------------------------
          Reading geometry description geometry.in.
------------------------------------------------------------
  | The smallest distance between any two atoms is         2.24981523 AA.
  | The first atom of this pair is atom number                      1 .
  | The second atom of this pair is atom number                     6 .
  | Wigner-Seitz cell of the first atom image           0     0     0 .
  | (The Wigner-Seitz cell of the second atom is 0 0 0  by definition.)

  Symmetry information by spglib:
  | Precision set to  0.1E-04
  | Number of Operations  : 4
  | Space group           : 35
  | International         : Cmm2
  | Schoenflies           : C2v^11
  Input structure read successfully.
  The structure contains        8 atoms,  and a total of        112.000 electrons.

  Input geometry:
  | Unit cell:
  |        5.20902482       -0.00000000       -0.00000000
  |       -0.00000000        5.20902482        0.00000000
  |        0.00000000        0.00000000        5.20902482
  | Atomic structure:
  |       Atom                x [A]            y [A]            z [A]
  |    1: Species Si            0.01000000       -0.00000000       -0.00000000
  |    2: Species Si            0.00000000        2.60451241        2.60451241
  |    3: Species Si            2.60451241        0.00000000        2.60451241
  |    4: Species Si            2.60451241        2.60451241        0.00000000
  |    5: Species Si            1.30225621        1.30225621        1.30225621
  |    6: Species Si            1.30225621        3.90676862        3.90676862
  |    7: Species Si            3.90676862        1.30225621        3.90676862
  |    8: Species Si            3.90676862        3.90676862        1.30225621

  Lattice parameters for 3D lattice (in Angstroms) :     5.209025    5.209025    5.209025
  Angle(s) between unit vectors (in degrees)       :    90.000000   90.000000   90.000000


  Quantities derived from the lattice vectors (in Angstrom^-1):
  | Reciprocal lattice vector 1:  1.206211 -0.000000 -0.000000
  | Reciprocal lattice vector 2:  0.000000  1.206211  0.000000
  | Reciprocal lattice vector 3:  0.000000 -0.000000  1.206211
  | Unit cell volume                               :   0.141341E+03  Angstrom^3

  Slab Identifier: This seems to be a bulk system.

  Finished reading input file 'geometry.in'.



  Consistency checks for stacksize environment parameter are next.

  | Maximum stacksize for task 0: unlimited
  | Maximum stacksize for task 1: unlimited
  | Maximum stacksize for task 2: unlimited
  | Maximum stacksize for task 3: unlimited
  | Maximum stacksize for task 4: unlimited
  | Maximum stacksize for task 5: unlimited
  | Current stacksize for task 0: unlimited
  | Current stacksize for task 1: unlimited
  | Current stacksize for task 2: unlimited
  | Current stacksize for task 3: unlimited
  | Current stacksize for task 4: unlimited
  | Current stacksize for task 5: unlimited

  Consistency checks for the contents of control.in are next.

  MPI_IN_PLACE appears to work with this MPI implementation.
  | Keeping use_mpi_in_place .true. (see manual).
  Target number of points in a grid batch is not set. Defaulting to  100
  Method for grid partitioning is not set. Defaulting to parallel hash+maxmin partitioning.
  Batch size limit is not set. Defaulting to    200
  By default, will store active basis functions for each batch.
  If in need of memory, prune_basis_once .false. can be used to disable this option.
  communication_type for Hartree potential was not specified.
  Defaulting to calc_hartree .
  Defaulting to Pulay charge density mixer.
  Pulay mixer: Number of relevant iterations not set.
  Defaulting to    8 iterations.
  Pulay mixer: Number of initial linear mixing iterations not set.
  Defaulting to    0 iterations.
  Work space size for distributed Hartree potential not set.
  Defaulting to   0.200000E+03 MB.
  Mixing parameter for charge density mixing has not been set.
  Using default: charge_mix_param =     0.0500.
  The mixing parameter will be adjusted in iteration number     2 of each s.c.f. cycle (i.e., each geometry step).
  Algorithm-dependent basis array size parameters:
  | n_max_pulay                         :        8
  Maximum number of self-consistency iterations not provided.
  Presetting  1000 iterations.
  Presetting      1001 iterations before the initial mixing cycle
  is restarted anyway using the sc_init_iter criterion / keyword.
  Presetting a factor      1.000 between actual scf density residual
  and density convergence criterion sc_accuracy_rho below which sc_init_iter
  takes no effect.
  Geometry relaxation not requested: no relaxation will be performed.
  Forces evaluation will include force correction term due to incomplete self-consistency (default).
  Force calculation: scf convergence accuracy of forces not set.
  Defaulting to 'sc_accuracy_forces not_checked'.
  Handling of forces: Unphysical translation and rotation will be removed from forces.
  No accuracy limit for integral partition fn. given. Defaulting to  0.1000E-14.
  No threshold value for u(r) in integrations given. Defaulting to  0.1000E-05.
  No occupation type (smearing scheme) given. Defaulting to Gaussian broadening, width =  0.1000E-01 eV.
  The width will be adjusted in iteration number     2 of each s.c.f. cycle (i.e., each geometry step).
  No accuracy for occupation numbers given. Defaulting to  0.1000E-12.
  No threshold value for occupation numbers given. Defaulting to  0.0000E+00.
  No accuracy for fermi level given. Defaulting to  0.1000E-19.
  Maximum # of iterations to find E_F not set. Defaulting to  200.
  Preferred method for the eigenvalue solver ('KS_method') not specified in 'control.in'.
  Defaulting to serial version, LAPACK (via ELSI), since more k-points than CPUs available.
  Will not use alltoall communication since running on < 1024 CPUs.
  Threshold for basis singularities not set.
  Default threshold for basis singularities:  0.1000E-04
  partition_type (choice of integration weights) for integrals was not specified.
  | Using a version of the partition function of Stratmann and coworkers ('stratmann_sparse').
  | At each grid point, the set of atoms used to build the partition table is smoothly restricted to
  | only those atoms whose free-atom density would be non-zero at that grid point.
  Partitioning for Hartree potential was not defined. Using partition_type for integrals.
  | Adjusted default value of keyword multip_moments_threshold to:       0.10000000E-11
  | This value may affect high angular momentum components of the Hartree potential in periodic systems.
  Spin handling was not defined in control.in. Defaulting to unpolarized case.
  No q(lm)/r^(l+1) cutoff set for long-range Hartree potential.
  | Using default value of  0.100000E-09 .
  | Verify using the multipole_threshold keyword.
  Defaulting to new monopole extrapolation.
  Density update method: automatic selection selected.
  Using density matrix based charge density update.
  Using density matrix based charge density update.
  Using packed matrix style: index .
  Threshold of packed matrixes:  0.000000E+00
  Defaulting to use time-reversal symmetry for k-point grid.
  Charge integration errors on the 3D integration grid will be compensated
  by explicit normalization and distribution of residual charges.
  Use the "compensate_multipole_errors" flag to change this behaviour.
  Set 'collect_eigenvectors' to be '.true.' for all serial calculations. This is mandatory.
  Set 'collect_eigenvectors' to be '.true.' for KS_method lapack_fast and serial.
  Found potential conflicts with setting 'use_local_index' for this calculation. Will not set it.

  Consistency checks for the contents of geometry.in are next.


  Range separation radius for Ewald summation (hartree_convergence_parameter):      3.71298181 bohr.
  Number of empty states per atom not set in control.in - providing a guess from actual geometry.
  | Total number of empty states used during s.c.f. cycle:       24
  If you use a very high smearing, use empty_states (per atom!) in control.in to increase this value.

  Structure-dependent array size parameters: 
  | Maximum number of distinct radial functions  :        9
  | Maximum number of basis functions            :      200
  | Number of Kohn-Sham states (occupied + empty):       80
------------------------------------------------------------

************************** W A R N I N G *******************************
* You are using the PIMD wrapper. Specifications and positions         *
* in geometry.in will be IGNORED - all is received from the wrapper.   *
* Please make sure species are declared in the same order in           *
* geometry.in and wrapper input.                                       *
************************************************************************


  Checking k-grid inconsistencies now:
  | k-point density for reciprocal lattice vector 1 is    3.32 nkpts / Angstrom^-1
  | k-point density for reciprocal lattice vector 2 is    3.32 nkpts / Angstrom^-1
  | k-point density for reciprocal lattice vector 3 is    3.32 nkpts / Angstrom^-1

  | Ratio of k-point densities for reciprocal lattice vectors 1 vs 2 is    1.00
  | Ratio of k-point densities for reciprocal lattice vectors 1 vs 3 is    1.00
  | Ratio of k-point densities for reciprocal lattice vectors 2 vs 3 is    1.00

  * The specified k_grid leads to a nearly homogenous k-grid density in non-vacuum directions,
  * and seems sensible.

  | Checks passed.
  After read_input_data [GB]:      5.08

  Performing system and environment tests:
  *** Environment variable OMP_NUM_THREADS is not set
  *** For performance reasons you might want to set it to 1
  | Checking for ScaLAPACK...
  | Testing pdtran()...
  | All pdtran() tests passed.
  After prepare_system [GB]:      5.06

------------------------------------------------------------
          Preparing all fixed parts of the calculation.
------------------------------------------------------------
  Determining machine precision:
     2.2250738585072014E-308
  Setting up grids for atomic and cluster calculations.

  Creating wave function, potential, and density for free atoms.
  Runtime choices for atomic solver:
  | atomic solver xc        : PW-LDA
  | compute density gradient: 0
  | compute kinetic density : F

  Species: Si

  List of occupied orbitals and eigenvalues:
    n    l              occ      energy [Ha]    energy [eV]
    1    0           2.0000       -65.491668     -1782.1190
    2    0           2.0000        -5.087967      -138.4506
    3    0           2.0000        -0.391471       -10.6525
    2    1           6.0000        -3.502246       -95.3010
    3    1           2.0000        -0.143943        -3.9169


  Adding cutoff potential to free-atom effective potential.
  Creating fixed part of basis set: Ionic, confined, hydrogenic.

  Si                   ion:

  List of free ionic orbitals and eigenvalues:
    n    l      energy [Ha]    energy [eV]
    1    0       -66.364436     -1805.8682
    2    0        -5.935799      -161.5213
    3    0        -1.078166       -29.3384
    2    1        -4.351123      -118.4001
    3    1        -0.781733       -21.2720


  List of ionic basis orbitals and eigenvalues:
    n    l      energy [Ha]    energy [eV]    outer radius [A]
    3    0        -1.078146       -29.3378       4.214062


  Si                   hydrogenic:

  List of hydrogenic basis orbitals: 
    n    l      effective z      eigenvalue [eV]  inner max. [A]     outer max. [A]     outer radius [A]   
    3    2         4.200000       -26.6624           1.139231           1.139231           4.534782
    2    1         1.400000        -6.4613           1.472672           1.472672           4.590560
    4    3         6.200000       -32.6778           1.368518           1.368518           4.534782

  Creating atomic-like basis functions for current effective potential.

  Species Si                  :

  List of atomic basis orbitals and eigenvalues:
    n    l      energy [Ha]    energy [eV]    outer radius [A]
    1    0       -65.491668     -1782.1190       0.789468
    2    0        -5.087967      -138.4506       2.815114
    3    0        -0.391471       -10.6525       4.534782
    2    1        -3.502246       -95.3010       3.259919
    3    1        -0.143943        -3.9169       4.590560

  Assembling full basis from fixed parts.
  | Species Si :   atomic orbital   1 s accepted.
  | Species Si :   atomic orbital   2 s accepted.
  | Species Si :    ionic orbital   3 s accepted.
  | Species Si :   atomic orbital   3 s accepted.
  | Species Si :   atomic orbital   2 p accepted.
  | Species Si :   atomic orbital   3 p accepted.
  | Species Si :    hydro orbital   2 p accepted.
  | Species Si :    hydro orbital   3 d accepted.
  | Species Si :    hydro orbital   4 f accepted.

  Basis size parameters after reduction:
  | Total number of radial functions:        9
  | Total number of basis functions :      200

  Per-task memory consumption for arrays in subroutine allocate_ext:
  |           3.106072MB.
  Testing on-site integration grid accuracy.
  |  Species  Function  <phi|h_atom|phi> (log., in eV)  <phi|h_atom|phi> (rad., in eV)
           1        1              -1782.1189727076              -1782.1182429251
           1        2               -138.4506350693               -138.4506310079
           1        3                -10.3030408815                -10.3029120678
           1        4                  5.0238999146                  4.9457540310 ***
           1        5                -95.3009689499                -95.3009689315
           1        6                 -3.9266496564                 -3.9420918374
           1        7                  6.3453628447                  6.1632372158 ***
           1        8                  6.2883050744                  6.2861881409
           1        9                 19.3222464920                 19.3177041052
 * Note: Onsite integrals marked "***" above are less accurate than
 * onsite_accuracy_threshold =    0.03000 eV. Usually, this is harmless.
 * When in doubt, tighten the "radial" and/or "radial_multiplier" flags to check.

  Preparing densities etc. for the partition functions (integrals / Hartree potential).

  Preparations completed.
  max(cpu_time)          :      0.083 s.
  Wall clock time (cpu1) :      0.083 s.
------------------------------------------------------------
  After prepare_scf [GB]:      4.82

  Initializing index lists of integration centers etc. from given atomic structure:
  Mapping all atomic coordinates to central unit cell.

  Initializing the k-points
  Using symmetry for reducing the k-points
  | k-points reduced from:       64 to       36
  | Number of k-points                             :        36
  The eigenvectors in the calculations are COMPLEX.
  | K-points in task   0:         6
  | K-points in task   1:         6
  | K-points in task   2:         6
  | K-points in task   3:         6
  | K-points in task   4:         6
  | K-points in task   5:         6
  | Number of basis functions in the Hamiltonian integrals :      3169
  | Number of basis functions in a single unit cell        :       200
  | Number of centers in hartree potential         :      1026
  | Number of centers in hartree multipole         :       516
  | Number of centers in electron density summation:       366
  | Number of centers in basis integrals           :       432
  | Number of centers in integrals                 :       143
  | Number of centers in hamiltonian               :       366
  | Consuming         49 KiB for k_phase.
  | Number of super-cells (origin) [n_cells]                     :         729
  | Number of super-cells (after PM_index) [n_cells]             :          88
  | Number of super-cells in hamiltonian [n_cells_in_hamiltonian]:          88
  | Size of matrix packed + index [n_hamiltonian_matrix_size] :      398185
  After initialize_bc_dependent_lists [GB]:      4.81
* Skipping the SCF initialization for now - done inside wrapper      *
  @ DRIVER MODE: Connecting to host:port localhost       10001
  @ DRIVER MODE: Message from server: STATUS      
  @ DRIVER MODE: Message from server: POSDATA     
  @ DRIVER MODE: Received positions 

  Initializing index lists of integration centers etc. from given atomic structure:
  Mapping all atomic coordinates to central unit cell.

  Initializing the k-points
  Using symmetry for reducing the k-points
  | k-points reduced from:       64 to       36
  | Number of k-points                             :        36
  The eigenvectors in the calculations are COMPLEX.
  | K-points in task   0:         6
  | K-points in task   1:         6
  | K-points in task   2:         6
  | K-points in task   3:         6
  | K-points in task   4:         6
  | K-points in task   5:         6
  | Number of basis functions in the Hamiltonian integrals :      3169
  | Number of basis functions in a single unit cell        :       200
  | Number of centers in hartree potential         :      1026
  | Number of centers in hartree multipole         :       516
  | Number of centers in electron density summation:       366
  | Number of centers in basis integrals           :       432
  | Number of centers in integrals                 :       143
  | Number of centers in hamiltonian               :       366
  | Consuming         49 KiB for k_phase.
  | Number of super-cells (origin) [n_cells]                     :         729
  | Number of super-cells (after PM_index) [n_cells]             :          88
  | Number of super-cells in hamiltonian [n_cells_in_hamiltonian]:          88
  | Size of matrix packed + index [n_hamiltonian_matrix_size] :      398185

------------------------------------------------------------
          Begin self-consistency loop: Initialization.

          Date     :  20250610, Time     :  175100.917
------------------------------------------------------------
  Available memory per node after initialize_hartree_non_periodic_ewald [GB]:      4.81
  | Estimated reciprocal-space cutoff momentum G_max:         2.51981341 bohr^-1 .
  | Reciprocal lattice points for long-range Hartree potential:     250
  Available memory per node after initialize_recip_hartree_potential [GB]:      4.81
  Available memory per node after initialize_scalapack [GB]:      4.81
  Available memory per node after aims_elsi_init_scf [GB]:      4.81
  Available memory per node after initialize_fixed_grids [GB]:      4.81
  Partitioning the integration grid into batches with parallel hashing+maxmin method.
  | Number of batches:      714
  | Maximal batch size:     118
  | Minimal batch size:      54
  | Average batch size:      62.790
  | Standard deviation of batch sizes:      14.501

  Integration load balanced across     6 MPI tasks.
  Work distribution over tasks is as follows:
  Task     0 has       7479 integration points.
  Task     1 has       7465 integration points.
  Task     2 has       7505 integration points.
  Task     3 has       7441 integration points.
  Task     4 has       7465 integration points.
  Task     5 has       7477 integration points.
  Available memory per node after partition_grid [GB]:      4.81
  Initializing partition tables, free-atom densities, potentials, etc. across the integration grid (initialize_grid_storage).
  | initialize_grid_storage: Actual outermost partition radius vs. multipole_radius_free
  | (-- VB: in principle, multipole_radius_free should be larger, hence this output)
  | Species        1: Confinement radius =              4.999999999999999 AA, multipole_radius_free =              5.000694715736543 AA.
  | Species        1: outer_partition_radius set to              5.000694715736543 AA .
  | The sparse table of interatomic distances needs        684.39 kbyte instead of      1492.99 kbyte of memory.
  | Net number of integration points:    44832
  | of which are non-zero points    :    38512
  | Numerical average free-atom electrostatic potential    :    -14.89356335 eV
  Available memory per node after initialize_grid_storage_p1 [GB]:      4.81
  Renormalizing the initial density to the exact electron count on the 3D integration grid.
  | Initial density: Formal number of electrons (from input files) :     112.0000000000
  | Integrated number of electrons on 3D grid     :     112.0248448207
  | Charge integration error                      :       0.0248448207
  | Normalization factor for density and gradient :       0.9997782204
  Renormalizing the free-atom superposition density to the exact electron count on the 3D integration grid.
  | Formal number of electrons (from input files) :     112.0000000000
  | Integrated number of electrons on 3D grid     :     112.0248448207
  | Charge integration error                      :       0.0248448207
  | Normalization factor for density and gradient :       0.9997782204
  Obtaining max. number of non-zero basis functions in each batch (get_n_compute_maxes).
  | Maximal number of non-zero basis functions:      779 in task     0
  | Maximal number of non-zero basis functions:      778 in task     1
  | Maximal number of non-zero basis functions:      752 in task     2
  | Maximal number of non-zero basis functions:      786 in task     3
  | Maximal number of non-zero basis functions:      791 in task     4
  | Maximal number of non-zero basis functions:      773 in task     5
  Available memory per node after get_n_compute_maxes_p1 [GB]:      4.81
  Allocating        1.465 MB for KS_eigenvector_complex
  Available memory per node after allocate_matrices [GB]:      4.80
  Available memory per node after init_comm_sparse_local_matrix_scalapack [GB]:      4.80
  Integrating Hamiltonian matrix: batch-based integration.
  Time summed over all CPUs for integration: real work        4.626 s, elapsed        4.696 s
  Available memory per node after integrate hamiltonian matrix [GB]:      4.75
  Integrating overlap matrix.
  Time summed over all CPUs for integration: real work        3.809 s, elapsed        3.834 s
  Available memory per node after integrate ovlp matrix [GB]:      4.73
  Available memory per node after ASI_callbacks invoke [GB]:      4.73
  Available memory per node after save_overlap_scalapack [GB]:      4.73

  Updating Kohn-Sham eigenvalues and eigenvectors using ELSI and the (modified) LAPACK eigensolver.

  Obtaining occupation numbers and electronic chemical potential using ELSI.
  | Note that, for insulating systems, the printed 'chemical potential' value is not uniquely defined.
  | It can be anywhere in the energy gap, as long as it correctly separates occupied and unoccupied states.
  | In systems with a gap, the physically relevant chemical potential is the VBM or HOMO.

  | Chemical potential (Fermi level):    -6.25972546 eV
  Available memory per node after advance_KS_solution [GB]:      4.73
  Writing Kohn-Sham eigenvalues.
  K-point:       1 at    0.000000    0.000000    0.000000 (in units of recip. lattice)

  State    Occupation    Eigenvalue [Ha]    Eigenvalue [eV]
      1       2.00000         -65.522002        -1782.94439
      2       2.00000         -65.522002        -1782.94439
      3       2.00000         -65.521855        -1782.94040
      4       2.00000         -65.521851        -1782.94029
      5       2.00000         -65.521851        -1782.94029
      6       2.00000         -65.521851        -1782.94029
      7       2.00000         -65.521703        -1782.93625
      8       2.00000         -65.521703        -1782.93625
      9       2.00000          -5.125000         -139.45834
     10       2.00000          -5.124849         -139.45424
     11       2.00000          -5.124678         -139.44958
     12       2.00000          -5.124673         -139.44945
     13       2.00000          -5.124673         -139.44945
     14       2.00000          -5.124671         -139.44939
     15       2.00000          -5.124500         -139.44473
     16       2.00000          -5.124350         -139.44066
     17       2.00000          -3.539533          -96.31560
     18       2.00000          -3.539474          -96.31399
     19       2.00000          -3.539446          -96.31323
     20       2.00000          -3.539444          -96.31318
     21       2.00000          -3.539431          -96.31282
     22       2.00000          -3.539325          -96.30993
     23       2.00000          -3.539278          -96.30865
     24       2.00000          -3.539230          -96.30734
     25       2.00000          -3.539180          -96.30598
     26       2.00000          -3.538749          -96.29426
     27       2.00000          -3.538735          -96.29388
     28       2.00000          -3.538731          -96.29377
     29       2.00000          -3.538731          -96.29376
     30       2.00000          -3.538721          -96.29349
     31       2.00000          -3.538712          -96.29325
     32       2.00000          -3.538256          -96.28085
     33       2.00000          -3.538230          -96.28013
     34       2.00000          -3.538180          -96.27878
     35       2.00000          -3.538127          -96.27734
     36       2.00000          -3.538027          -96.27461
     37       2.00000          -3.538021          -96.27445
     38       2.00000          -3.538011          -96.27416
     39       2.00000          -3.537990          -96.27360
     40       2.00000          -3.537950          -96.27252
     41       2.00000          -0.710395          -19.33082
     42       2.00000          -0.544605          -14.81945
     43       2.00000          -0.544261          -14.81010
     44       2.00000          -0.543867          -14.79937
     45       2.00000          -0.543866          -14.79936
     46       2.00000          -0.543477          -14.78875
     47       2.00000          -0.543129          -14.77930
     48       2.00000          -0.356167           -9.69178
     49       2.00000          -0.355834           -9.68273
     50       2.00000          -0.355805           -9.68193
     51       2.00000          -0.355801           -9.68184
     52       2.00000          -0.355776           -9.68115
     53       2.00000          -0.355444           -9.67211
     54       2.00000          -0.244880           -6.66353
     55       2.00000          -0.244362           -6.64943
     56       2.00000          -0.243841           -6.63525
     57       0.00000          -0.213768           -5.81692
     58       0.00000          -0.213634           -5.81329
     59       0.00000          -0.213350           -5.80554
     60       0.00000          -0.213349           -5.80552
     61       0.00000          -0.213069           -5.79791
     62       0.00000          -0.212933           -5.79421
     63       0.00000          -0.138270           -3.76252
     64       0.00000          -0.138004           -3.75529
     65       0.00000          -0.137743           -3.74818
     66       0.00000          -0.068980           -1.87703
     67       0.00000           0.057196            1.55639
     68       0.00000           0.057202            1.55655
     69       0.00000           0.092119            2.50668
     70       0.00000           0.170864            4.64944
     71       0.00000           0.171097            4.65577
     72       0.00000           0.171303            4.66140
     73       0.00000           0.171317            4.66177
     74       0.00000           0.171481            4.66623
     75       0.00000           0.171729            4.67299
     76       0.00000           0.182399            4.96333
     77       0.00000           0.183066            4.98148
     78       0.00000           0.183128            4.98317
     79       0.00000           0.183134            4.98333
     80       0.00000           0.183208            4.98535

  What follows are estimated values for band gap, HOMO, LUMO, etc.
  | They are estimated on a discrete k-point grid and not necessarily exact.
  | For converged numbers, create a DOS and/or band structure plot on a denser k-grid.

  Highest occupied state (VBM) at     -6.63524905 eV (relative to internal zero)
  | Occupation number:      2.00000000
  | K-point:       1 at    0.000000    0.000000    0.000000 (in units of recip. lattice)

  Lowest unoccupied state (CBM) at    -5.88420187 eV (relative to internal zero)
  | Occupation number:      0.00000000
  | K-point:      11 at    0.250000    0.000000    0.000000 (in units of recip. lattice)

  The gap value is above 0.2 eV. Unless you are using a very sparse k-point grid,
  this system is most likely an insulator or a semiconductor.
  ESTIMATED overall HOMO-LUMO gap:      0.75104719 eV between HOMO at k-point 1 and LUMO at k-point 11
  | This appears to be an indirect band gap.
  | Smallest direct gap :      0.81832790 eV for k_point 1 at    0.000000    0.000000    0.000000 (in units of recip. lattice)
  Calculating total energy contributions from superposition of free atom densities.

  Total energy components:
  | Sum of eigenvalues            :       -1314.27011748 Ha      -35763.10950362 eV
  | XC energy correction          :        -158.92845593 Ha       -4324.66332226 eV
  | XC potential correction       :         209.96806142 Ha        5713.52165199 eV
  | Free-atom electrostatic energy:       -1051.74142779 Ha      -28619.34038607 eV
  | Hartree energy correction     :          -0.00000000 Ha          -0.00000000 eV
  | Entropy correction            :          -0.00000000 Ha          -0.00000000 eV
  | ---------------------------
  | Total energy                  :       -2314.97193978 Ha      -62993.59155996 eV
  | Total energy, T -> 0          :       -2314.97193978 Ha      -62993.59155996 eV  <-- do not rely on this value for anything but (periodic) metals
  | Electronic free energy        :       -2314.97193978 Ha      -62993.59155996 eV

  Derived energy quantities:
  | Kinetic energy                :        2319.61347171 Ha       63119.89407001 eV
  | Electrostatic energy          :       -4475.65695556 Ha     -121788.82230771 eV
  | Energy correction for multipole
  | error in Hartree potential    :           0.00000000 Ha           0.00000000 eV
  | Sum of eigenvalues per atom                           :       -4470.38868795 eV
  | Total energy (T->0) per atom                          :       -7874.19894499 eV  <-- do not rely on this value for anything but (periodic) metals
  | Electronic free energy per atom                       :       -7874.19894499 eV
  Initialize hartree_potential_storage
  Max. number of atoms included in rho_multipole:            8

  End scf initialization - timings             :  max(cpu_time)    wall_clock(cpu1)
  | Time for scf. initialization                :        1.831 s           1.830 s
  | Boundary condition initialization           :        0.018 s           0.018 s
  | Integration                                 :        1.435 s           1.435 s
  | Solution of K.-S. eqns.                     :        0.229 s           0.229 s
  | Grid partitioning                           :        0.032 s           0.032 s
  | Preloading free-atom quantities on grid     :        0.121 s           0.120 s
  | Free-atom superposition energy              :        0.014 s           0.014 s
  | Total energy evaluation                     :        0.000 s           0.000 s

  Partial memory accounting:
  | Current value for overall tracked memory usage:
  |   Minimum:        9.104 MB (on task 0)
  |   Maximum:        9.104 MB (on task 0)
  |   Average:        9.104 MB
  | Peak value for overall tracked memory usage:
  |   Minimum:       15.450 MB (on task 2 after allocating wave)
  |   Maximum:       16.014 MB (on task 4 after allocating wave)
  |   Average:       15.803 MB
  | Largest tracked array allocation so far:
  |   Minimum:        4.314 MB (hamiltonian_shell on task 2)
  |   Maximum:        4.774 MB (hamiltonian_shell on task 4)
  |   Average:        4.601 MB
  Note:  These values currently only include a subset of arrays which are explicitly tracked.
  The "true" memory usage will be greater.
------------------------------------------------------------
  Time for density update prior                :  max(cpu_time)    wall_clock(cpu1)
  | self-consistency iterative process          :        1.321 s           1.322 s
------------------------------------------------------------
Convergence:    q app. |  density  | eigen (eV) | Etot (eV) | forces (eV/A) |       CPU time |     Clock time
  SCF    1 : -0.71E-13 |  0.25E+00 |   0.73E+01 |  0.14E+00 |             . |        2.345 s |        2.345 s
  SCF    2 :  0.20E-12 |  0.24E+00 |   0.11E+03 |  0.89E+00 |             . |        2.417 s |        2.417 s
  SCF    3 :  0.10E-12 |  0.36E-01 |  -0.39E+02 |  0.53E-01 |             . |        2.410 s |        2.410 s
  SCF    4 :  0.82E-13 |  0.19E-01 |   0.81E+01 |  0.46E-02 |             . |        2.417 s |        2.417 s
  SCF    5 : -0.38E-14 |  0.57E-02 |  -0.18E+01 |  0.21E-02 |             . |        2.411 s |        2.411 s
  SCF    6 : -0.10E-12 |  0.40E-03 |  -0.30E+00 |  0.20E-03 |             . |        2.419 s |        2.418 s
  SCF    7 :  0.11E-12 |  0.17E-03 |   0.11E+00 | -0.45E-04 |             . |        2.414 s |        2.414 s
  SCF    8 :  0.10E-12 |  0.73E-04 |  -0.28E-01 |  0.26E-04 |             . |        2.418 s |        2.418 s
  SCF    9 :  0.88E-13 |  0.75E-04 |   0.47E-01 | -0.12E-04 |             . |        2.416 s |        2.416 s
  SCF   10 :  0.43E-13 |  0.11E-04 |   0.82E-02 | -0.18E-05 |             . |        2.420 s |        2.420 s
  SCF   11 : -0.25E-12 |  0.63E-06 |  -0.60E-03 |  0.63E-07 |             . |        2.413 s |        2.413 s
  SCF   12 : -0.26E-12 |  0.17E-06 |   0.14E-03 | -0.74E-08 |      0.79E-01 |       15.568 s |       15.568 s

  Total energy components:
  | Sum of eigenvalues            :       -1311.15061839 Ha      -35678.22361454 eV
  | XC energy correction          :        -159.16855719 Ha       -4331.19680988 eV
  | XC potential correction       :         210.28444477 Ha        5722.13088112 eV
  | Free-atom electrostatic energy:       -1051.74142779 Ha      -28619.34038607 eV
  | Hartree energy correction     :          -3.15584789 Ha         -85.87499026 eV
  | Entropy correction            :          -0.00000000 Ha          -0.00000000 eV
  | ---------------------------
  | Total energy                  :       -2314.93200648 Ha      -62992.50491962 eV
  | Total energy, T -> 0          :       -2314.93200648 Ha      -62992.50491962 eV  <-- do not rely on this value for anything but (periodic) metals
  | Electronic free energy        :       -2314.93200648 Ha      -62992.50491962 eV

  Derived energy quantities:
  | Kinetic energy                :        2320.32945781 Ha       63139.37704326 eV
  | Electrostatic energy          :       -4476.09290711 Ha     -121800.68515300 eV
  | Energy correction for multipole
  | error in Hartree potential    :           0.07263860 Ha           1.97659684 eV
  | Sum of eigenvalues per atom                           :       -4459.77795182 eV
  | Total energy (T->0) per atom                          :       -7874.06311495 eV  <-- do not rely on this value for anything but (periodic) metals
  | Electronic free energy per atom                       :       -7874.06311495 eV
  What follows are estimated values for band gap, HOMO, LUMO, etc.
  | They are estimated on a discrete k-point grid and not necessarily exact.
  | For converged numbers, create a DOS and/or band structure plot on a denser k-grid.

  Highest occupied state (VBM) at     -6.02532102 eV (relative to internal zero)
  | Occupation number:      2.00000000
  | K-point:       1 at    0.000000    0.000000    0.000000 (in units of recip. lattice)

  Lowest unoccupied state (CBM) at    -5.71143698 eV (relative to internal zero)
  | Occupation number:      0.00000000
  | K-point:      11 at    0.250000    0.000000    0.000000 (in units of recip. lattice)

  The gap value is above 0.2 eV. Unless you are using a very sparse k-point grid,
  this system is most likely an insulator or a semiconductor.
  ESTIMATED overall HOMO-LUMO gap:      0.31388404 eV between HOMO at k-point 1 and LUMO at k-point 11
  | This appears to be an indirect band gap.
  | Smallest direct gap :      0.34963607 eV for k_point 1 at    0.000000    0.000000    0.000000 (in units of recip. lattice)

  | Chemical Potential                          :    -5.86837900 eV
  | Note that, for insulating systems, the printed 'chemical potential' value is not uniquely defined.
  | It can be anywhere in the energy gap, as long as it correctly separates occupied and unoccupied states.
  | In systems with a gap, the physically relevant chemical potential is the VBM or HOMO.

  Self-consistency cycle converged.

  Removing unitary transformations (pure translations, rotations) from forces on atoms.
  Atomic forces before filtering:
  | Net force on center of mass :   0.472339E-06 -0.679106E-08 -0.198517E-07 eV/A
  Atomic forces after filtering:
  | Net force on center of mass :  -0.557519E-17  0.557519E-17  0.000000E+00 eV/A

  Energy and forces in a compact form:
  | Total energy uncorrected      :         -0.629925049196249E+05 eV
  | Total energy corrected        :         -0.629925049196249E+05 eV  <-- do not rely on this value for anything but (periodic) metals
  | Electronic free energy        :         -0.629925049196249E+05 eV
  Total atomic forces (unitary forces cleaned) [eV/Ang]:
  |    1         -0.174787433117022E+00          0.771710564230300E-08         -0.617318887172561E-08
  |    2         -0.182860357732563E-01          0.663996939466070E-08         -0.307774398806071E-08
  |    3          0.109706111896331E-01          0.866364557005998E-08         -0.594293487181820E-09
  |    4          0.109705991219696E-01         -0.351479211751196E-08         -0.751955935086435E-09
  |    5          0.429965493377175E-01          0.383466459901004E-01          0.383466490042783E-01
  |    6          0.429965465889976E-01         -0.383466725128441E-01         -0.383466413506104E-01
  |    7          0.425695828176399E-01         -0.373992446414931E-01          0.373992494164587E-01
  |    8          0.425695798343205E-01          0.373992516583082E-01         -0.373992464729443E-01

  Removing unitary transformations (pure translations, rotations) from forces on atoms.
  Atomic forces before filtering:
  | Net force on center of mass :  -0.557519E-17  0.557519E-17  0.000000E+00 eV/A
  Atomic forces after filtering:
  | Net force on center of mass :  -0.557519E-17  0.000000E+00  0.000000E+00 eV/A
  @ DRIVER - WARNING: the stress tensor will not be computed
 ------------------------------------------------------------------------
 Atomic structure that was used in the preceding time step of the wrapper
                         x [A]             y [A]             z [A]
  lattice_vector         5.20902482       -0.00000000       -0.00000000
  lattice_vector        -0.00000000        5.20902482        0.00000000
  lattice_vector         0.00000000        0.00000000        5.20902482

            atom         0.01000000       -0.00000000       -0.00000000  Si
            atom        -0.00000000        2.60451241        2.60451241  Si
            atom         2.60451241        0.00000000        2.60451241  Si
            atom         2.60451241        2.60451241        0.00000000  Si
            atom         1.30225620        1.30225620        1.30225620  Si
            atom         1.30225620        3.90676861        3.90676861  Si
            atom         3.90676861        1.30225620        3.90676861  Si
            atom         3.90676861        3.90676861        1.30225620  Si
 ------------------------------------------------------------------------
  @ DRIVER MODE: Message from server: STATUS      
  @ DRIVER MODE: Message from server: GETFORCE    
  @ DRIVER MODE: Returning v,forces,stress 

------------------------------------------------------------------------------
  Final output of selected total energy values:

  The following output summarizes some interesting total energy values
  at the end of a run (AFTER all relaxation, molecular dynamics, etc.).

  | Total energy of the DFT / Hartree-Fock s.c.f. calculation      :         -62992.504919625 eV
  | Final zero-broadening corrected energy (caution - metals only) :         -62992.504919625 eV
  | For reference only, the value of 1 Hartree used in FHI-aims is :             27.211384500 eV
  | For reference only, the overall average (free atom contribution
  | + realspace contribution) of the electrostatic potential after
  | s.c.f. convergence is                                          :            -14.493555028 eV

  Before relying on these values, please be sure to understand exactly which
  total energy value is referred to by a given number. Different objects may
  all carry the same name 'total energy'. Definitions:

  Total energy of the DFT / Hartree-Fock s.c.f. calculation:
  | Note that this energy does not include ANY quantities calculated after the
  | s.c.f. cycle, in particular not ANY RPA, MP2, etc. many-body perturbation terms.

  Final zero-broadening corrected energy:
  | For metallic systems only, a broadening of the occupation numbers at the Fermi
  | level can be extrapolated back to zero broadening by an electron-gas inspired
  | formula. For all systems that are not real metals, this value can be
  | meaningless and should be avoided.

------------------------------------------------------------------------------
  Methods described in the following list of references were used in this FHI-aims run.
  If you publish the results, please make sure to cite these reference if they apply.
  FHI-aims is an academic code, and for our developers (often, Ph.D. students
  and postdocs), scientific credit in the community is essential.
  Thank you for helping us!

  For any use of FHI-aims, please cite:

    Volker Blum, Ralf Gehrke, Felix Hanke, Paula Havu, Ville Havu,
    Xinguo Ren, Karsten Reuter, and Matthias Scheffler
    'Ab initio molecular simulations with numeric atom-centered orbitals'
    Computer Physics Communications 180, 2175-2196 (2009)
    http://doi.org/10.1016/j.cpc.2009.06.022


  The provided symmetry information was generated with SPGlib:

    Atsushi Togo, Yusuke Seto, Dimitar Pashov
    SPGlib 1.7.3 obtained from http://spglib.sourceforge.net
    Licence: New BSD license
    Copyright (C) 2008 Atsushi Togo


  The ELSI infrastructure was used in your run to solve the Kohn-Sham electronic structure.
  Please check out https://wordpress.elsi-interchange.org to learn more.
  If scalability is important for your project, please acknowledge ELSI by citing:

    V. W-z. Yu, F. Corsetti, A. Garcia, W. P. Huhn, M. Jacquelin, W. Jia,
    B. Lange, L. Lin, J. Lu, W. Mi, A. Seifitokaldani, A. Vazquez-Mayagoitia,
    C. Yang, H. Yang, and V. Blum
    'ELSI: A unified software interface for Kohn-Sham electronic structure solvers'
    Computer Physics Communications 222, 267-285 (2018).
    http://doi.org/10.1016/j.cpc.2017.09.007


  For the real-space grid partitioning and parallelization used in this calculation, please cite:

    Ville Havu, Volker Blum, Paula Havu, and Matthias Scheffler,
    'Efficient O(N) integration for all-electron electronic structure calculation'
    'using numerically tabulated basis functions'
    Journal of Computational Physics 228, 8367-8379 (2009).
    http://doi.org/10.1016/j.jcp.2009.08.008

  Of course, there are many other important community references, e.g., those cited in the
  above references. Our list is limited to references that describe implementations in the
  FHI-aims code. The reason is purely practical (length of this list) - please credit others as well.
------------------------------------------------------------
Warnings summary:

At least    0 warnings were raised during execution.

------------------------------------------------------------
          Leaving FHI-aims.
          Date     :  20250610, Time     :  175146.184

          Computational steps:
          | Number of self-consistency cycles          :           12
          | Number of SCF (re)initializations          :            1

          Detailed time accounting                     :  max(cpu_time)    wall_clock(cpu1)
          | Total time                                  :       45.459 s          45.460 s
          | Preparation time                            :        0.083 s           0.083 s
          | Boundary condition initalization            :        0.018 s           0.018 s
          | Grid partitioning                           :        0.032 s           0.032 s
          | Preloading free-atom quantities on grid     :        0.121 s           0.120 s
          | Free-atom superposition energy              :        0.014 s           0.014 s
          | Total time for integrations                 :       11.397 s          11.399 s
          | Total time for solution of K.-S. equations  :        2.305 s           2.303 s
          | Total time for density & force components   :       29.869 s          29.868 s
          | Total time for mixing                       :        0.005 s           0.003 s
          | Total time for Hartree multipole update     :        0.010 s           0.012 s
          | Total time for Hartree multipole sum        :        1.054 s           1.053 s
          | Total time for total energy evaluation      :        0.001 s           0.002 s
          | Total time NSC force correction             :        0.410 s           0.410 s
          | Total time for scaled ZORA corrections      :        0.000 s           0.000 s

          Partial memory accounting:
          | Residual value for overall tracked memory usage across tasks:     0.000000 MB (should be 0.000000 MB)
          | Peak values for overall tracked memory usage:
          |   Minimum:       23.988 MB (on task 2 after allocating d_wave)
          |   Maximum:       24.933 MB (on task 4 after allocating d_wave)
          |   Average:       24.579 MB
          | Largest tracked array allocation:
          |   Minimum:        4.314 MB (hamiltonian_shell on task 2)
          |   Maximum:        4.774 MB (hamiltonian_shell on task 4)
          |   Average:        4.601 MB
          Note:  These values currently only include a subset of arrays which are explicitly tracked.
          The "true" memory usage will be greater.

          Have a nice day.
------------------------------------------------------------
