[Molden Format]
[Atoms](Angs)
  H     1    1      0.000000    0.000000    0.000000
  H     2    1      0.000000    0.000000    0.783823
[GEOMETRIES] XYZ
    2

  H      0.000000    0.000000    0.000000
  H      0.000000    0.000000    0.783823
[Scfconv]
scf-first  1 THROUGH      3
     -1.12542822
     -1.12542822
     -1.12542822
OPTIMIZATION CYCLES=    0
PRE OPTIMIZATION CYCLES=    0
ENERGY CYCLES =    1
