nqpoint: 200    
npath: 4      
segment_nqpoint:
- 50
- 50
- 50
- 50
labels:
- [ 'G', 'X' ]
- [ 'X', 'U|K' ]
- [ 'U|K', 'G' ]
- [ 'G', 'L' ]
reciprocal_lattice:
- [  -0.18488278,   0.18488278,   0.18488278 ] # a*
- [   0.18488278,  -0.18488278,   0.18488278 ] # b*
- [   0.18488278,   0.18488278,  -0.18488278 ] # c*
natom: 2      
lattice:
- [     0.000000000100000,     2.704416287198000,     2.704416287167000 ] # a
- [     2.704416294294000,     0.000000000083000,     2.704416287184000 ] # b
- [     2.704416294257000,     2.704416287179000,     0.000000000120000 ] # c
points:
- symbol: Si # 1
  coordinates: [  0.000000000008000,  0.000000000005000,  0.000000000019000 ]
  mass: 28.085000
- symbol: Si # 2
  coordinates: [  0.249999999992000,  0.249999999994999,  0.249999999981000 ]
  mass: 28.085000

phonon:
- q-position: [    0.0000000,    0.0000000,    0.0000000 ]
  distance:    0.0000000
  band:
  - # 1
    frequency:   -0.0000001203
  - # 2
    frequency:    0.0000002122
  - # 3
    frequency:    0.0000002321
  - # 4
    frequency:   15.4026468687
  - # 5
    frequency:   15.4026468687
  - # 6
    frequency:   15.4026468687

- q-position: [    0.0102041,    0.0000000,    0.0102041 ]
  distance:    0.0037731
  band:
  - # 1
    frequency:    0.1821772982
  - # 2
    frequency:    0.1821772982
  - # 3
    frequency:    0.3151913551
  - # 4
    frequency:   15.4002792340
  - # 5
    frequency:   15.4002792340
  - # 6
    frequency:   15.4020936389

- q-position: [    0.0204082,    0.0000000,    0.0204082 ]
  distance:    0.0075462
  band:
  - # 1
    frequency:    0.3640760529
  - # 2
    frequency:    0.3640760529
  - # 3
    frequency:    0.6301052848
  - # 4
    frequency:   15.3931750273
  - # 5
    frequency:   15.3931750273
  - # 6
    frequency:   15.4004128372

- q-position: [    0.0306122,    0.0000000,    0.0306122 ]
  distance:    0.0113194
  band:
  - # 1
    frequency:    0.5454155938
  - # 2
    frequency:    0.5454155938
  - # 3
    frequency:    0.9444667362
  - # 4
    frequency:   15.3813311592
  - # 5
    frequency:   15.3813311592
  - # 6
    frequency:   15.3975419447

- q-position: [    0.0408163,    0.0000000,    0.0408163 ]
  distance:    0.0150925
  band:
  - # 1
    frequency:    0.7259110030
  - # 2
    frequency:    0.7259110030
  - # 3
    frequency:    1.2580053406
  - # 4
    frequency:   15.3647451669
  - # 5
    frequency:   15.3647451669
  - # 6
    frequency:   15.3933794482

- q-position: [    0.0510204,    0.0000000,    0.0510204 ]
  distance:    0.0188656
  band:
  - # 1
    frequency:    0.9052710120
  - # 2
    frequency:    0.9052710120
  - # 3
    frequency:    1.5704576093
  - # 4
    frequency:   15.3434191174
  - # 5
    frequency:   15.3434191174
  - # 6
    frequency:   15.3877887365

- q-position: [    0.0612245,    0.0000000,    0.0612245 ]
  distance:    0.0226387
  band:
  - # 1
    frequency:    1.0831959370
  - # 2
    frequency:    1.0831959371
  - # 3
    frequency:    1.8815689581
  - # 4
    frequency:   15.3173648189
  - # 5
    frequency:   15.3173648189
  - # 6
    frequency:   15.3806032975

- q-position: [    0.0714286,    0.0000000,    0.0714286 ]
  distance:    0.0264118
  band:
  - # 1
    frequency:    1.2593756856
  - # 2
    frequency:    1.2593756857
  - # 3
    frequency:    2.1910955149
  - # 4
    frequency:   15.2866101023
  - # 5
    frequency:   15.2866101023
  - # 6
    frequency:   15.3716329782

- q-position: [    0.0816327,    0.0000000,    0.0816327 ]
  distance:    0.0301849
  band:
  - # 1
    frequency:    1.4334878867
  - # 2
    frequency:    1.4334878867
  - # 3
    frequency:    2.4988056723
  - # 4
    frequency:   15.2512058796
  - # 5
    frequency:   15.2512058796
  - # 6
    frequency:   15.3606710216

- q-position: [    0.0918367,    0.0000000,    0.0918367 ]
  distance:    0.0339581
  band:
  - # 1
    frequency:    1.6051962139
  - # 2
    frequency:    1.6051962139
  - # 3
    frequency:    2.8044813559
  - # 4
    frequency:   15.2112336433
  - # 5
    frequency:   15.2112336434
  - # 6
    frequency:   15.3475015678

- q-position: [    0.1020408,    0.0000000,    0.1020408 ]
  distance:    0.0377312
  band:
  - # 1
    frequency:    1.7741489950
  - # 2
    frequency:    1.7741489951
  - # 3
    frequency:    3.1079189886
  - # 4
    frequency:   15.1668130401
  - # 5
    frequency:   15.1668130401
  - # 6
    frequency:   15.3319072893

- q-position: [    0.1122449,    0.0000000,    0.1122449 ]
  distance:    0.0415043
  band:
  - # 1
    frequency:    1.9399782224
  - # 2
    frequency:    1.9399782225
  - # 3
    frequency:    3.4089301445
  - # 4
    frequency:   15.1181091305
  - # 5
    frequency:   15.1181091305
  - # 6
    frequency:   15.3136768357

- q-position: [    0.1224490,    0.0000000,    0.1224490 ]
  distance:    0.0452774
  band:
  - # 1
    frequency:    2.1022990990
  - # 2
    frequency:    2.1022990991
  - # 3
    frequency:    3.7073418931
  - # 4
    frequency:   15.0653389392
  - # 5
    frequency:   15.0653389392
  - # 6
    frequency:   15.2926117765

- q-position: [    0.1326531,    0.0000000,    0.1326531 ]
  distance:    0.0490505
  band:
  - # 1
    frequency:    2.2607102756
  - # 2
    frequency:    2.2607102757
  - # 3
    frequency:    4.0029968473
  - # 4
    frequency:   15.0087769023
  - # 5
    frequency:   15.0087769023
  - # 6
    frequency:   15.2685327667

- q-position: [    0.1428571,    0.0000000,    0.1428571 ]
  distance:    0.0528237
  band:
  - # 1
    frequency:    2.4147949467
  - # 2
    frequency:    2.4147949468
  - # 3
    frequency:    4.2957529345
  - # 4
    frequency:   14.9487588319
  - # 5
    frequency:   14.9487588319
  - # 6
    frequency:   15.2412846953

- q-position: [    0.1530612,    0.0000000,    0.1530612 ]
  distance:    0.0565968
  band:
  - # 1
    frequency:    2.5641229798
  - # 2
    frequency:    2.5641229799
  - # 3
    frequency:    4.5854829204
  - # 4
    frequency:   14.8856840468
  - # 5
    frequency:   14.8856840468
  - # 6
    frequency:   15.2107406334

- q-position: [    0.1632653,    0.0000000,    0.1632653 ]
  distance:    0.0603699
  band:
  - # 1
    frequency:    2.7082542478
  - # 2
    frequency:    2.7082542479
  - # 3
    frequency:    4.8720737184
  - # 4
    frequency:   14.8200153532
  - # 5
    frequency:   14.8200153533
  - # 6
    frequency:   15.1768044524

- q-position: [    0.1734694,    0.0000000,    0.1734694 ]
  distance:    0.0641430
  band:
  - # 1
    frequency:    2.8467433171
  - # 2
    frequency:    2.8467433172
  - # 3
    frequency:    5.1554255218
  - # 4
    frequency:   14.7522766172
  - # 5
    frequency:   14.7522766172
  - # 6
    frequency:   15.1394120429

- q-position: [    0.1836735,    0.0000000,    0.1836735 ]
  distance:    0.0679161
  band:
  - # 1
    frequency:    2.9791456072
  - # 2
    frequency:    2.9791456073
  - # 3
    frequency:    5.4354507973
  - # 4
    frequency:   14.6830477367
  - # 5
    frequency:   14.6830477367
  - # 6
    frequency:   15.0985311277

- q-position: [    0.1938776,    0.0000000,    0.1938776 ]
  distance:    0.0716892
  band:
  - # 1
    frequency:    3.1050250822
  - # 2
    frequency:    3.1050250823
  - # 3
    frequency:    5.7120731782
  - # 4
    frequency:   14.6129569135
  - # 5
    frequency:   14.6129569135
  - # 6
    frequency:   15.0541597209

- q-position: [    0.2040816,    0.0000000,    0.2040816 ]
  distance:    0.0754624
  band:
  - # 1
    frequency:    3.2239634522
  - # 2
    frequency:    3.2239634523
  - # 3
    frequency:    5.9852262929
  - # 4
    frequency:   14.5426702319
  - # 5
    frequency:   14.5426702319
  - # 6
    frequency:   15.0063233378

- q-position: [    0.2142857,    0.0000000,    0.2142857 ]
  distance:    0.0792355
  band:
  - # 1
    frequency:    3.3355707591
  - # 2
    frequency:    3.3355707591
  - # 3
    frequency:    6.2548525599
  - # 4
    frequency:   14.4728786867
  - # 5
    frequency:   14.4728786867
  - # 6
    frequency:   14.9550711160

- q-position: [    0.2244898,    0.0000000,    0.2244898 ]
  distance:    0.0830086
  band:
  - # 1
    frequency:    3.4394970925
  - # 2
    frequency:    3.4394970926
  - # 3
    frequency:    6.5209019789
  - # 4
    frequency:   14.4042829504
  - # 5
    frequency:   14.4042829505
  - # 6
    frequency:   14.9004710420

- q-position: [    0.2346939,    0.0000000,    0.2346939 ]
  distance:    0.0867817
  band:
  - # 1
    frequency:    3.5354450377
  - # 2
    frequency:    3.5354450377
  - # 3
    frequency:    6.7833309358
  - # 4
    frequency:   14.3375763388
  - # 5
    frequency:   14.3375763388
  - # 6
    frequency:   14.8426045164

- q-position: [    0.2448980,    0.0000000,    0.2448980 ]
  distance:    0.0905548
  band:
  - # 1
    frequency:    3.6231823090
  - # 2
    frequency:    3.6231823091
  - # 3
    frequency:    7.0421010418
  - # 4
    frequency:   14.2734265978
  - # 5
    frequency:   14.2734265978
  - # 6
    frequency:   14.7815605098

- q-position: [    0.2551020,    0.0000000,    0.2551020 ]
  distance:    0.0943279
  band:
  - # 1
    frequency:    3.7025538861
  - # 2
    frequency:    3.7025538862
  - # 3
    frequency:    7.2971780137
  - # 4
    frequency:   14.2124572942
  - # 5
    frequency:   14.2124572942
  - # 6
    frequency:   14.7174295718

- q-position: [    0.2653061,    0.0000000,    0.2653061 ]
  distance:    0.0981011
  band:
  - # 1
    frequency:    3.7734928667
  - # 2
    frequency:    3.7734928668
  - # 3
    frequency:    7.5485306050
  - # 4
    frequency:   14.1552297098
  - # 5
    frequency:   14.1552297098
  - # 6
    frequency:   14.6502979578

- q-position: [    0.2755102,    0.0000000,    0.2755102 ]
  distance:    0.1018742
  band:
  - # 1
    frequency:    3.8360292050
  - # 2
    frequency:    3.8360292051
  - # 3
    frequency:    7.7961295877
  - # 4
    frequency:   14.1022262060
  - # 5
    frequency:   14.1022262061
  - # 6
    frequency:   14.5802421219

- q-position: [    0.2857143,    0.0000000,    0.2857143 ]
  distance:    0.1056473
  band:
  - # 1
    frequency:    3.8902955340
  - # 2
    frequency:    3.8902955341
  - # 3
    frequency:    8.0399467892
  - # 4
    frequency:   14.0538360156
  - # 5
    frequency:   14.0538360156
  - # 6
    frequency:   14.5073238046

- q-position: [    0.2959184,    0.0000000,    0.2959184 ]
  distance:    0.1094204
  band:
  - # 1
    frequency:    3.9365293902
  - # 2
    frequency:    3.9365293903
  - # 3
    frequency:    8.2799541840
  - # 4
    frequency:   14.0103443195
  - # 5
    frequency:   14.0103443195
  - # 6
    frequency:   14.4315859085

- q-position: [    0.3061224,    0.0000000,    0.3061224 ]
  distance:    0.1131935
  band:
  - # 1
    frequency:    3.9750713696
  - # 2
    frequency:    3.9750713697
  - # 3
    frequency:    8.5161230426
  - # 4
    frequency:   13.9719252807
  - # 5
    frequency:   13.9719252808
  - # 6
    frequency:   14.3530493154

- q-position: [    0.3163265,    0.0000000,    0.3163265 ]
  distance:    0.1169667
  band:
  - # 1
    frequency:    4.0063590267
  - # 2
    frequency:    4.0063590268
  - # 3
    frequency:    8.7484231445
  - # 4
    frequency:   13.9386394454
  - # 5
    frequency:   13.9386394454
  - # 6
    frequency:   14.2717107492

- q-position: [    0.3265306,    0.0000000,    0.3265306 ]
  distance:    0.1207398
  band:
  - # 1
    frequency:    4.0309166596
  - # 2
    frequency:    4.0309166597
  - # 3
    frequency:    8.9768220642
  - # 4
    frequency:   13.9104356140
  - # 5
    frequency:   13.9104356140
  - # 6
    frequency:   14.1875417415

- q-position: [    0.3367347,    0.0000000,    0.3367347 ]
  distance:    0.1245129
  band:
  - # 1
    frequency:    4.0493414568
  - # 2
    frequency:    4.0493414569
  - # 3
    frequency:    9.2012845448
  - # 4
    frequency:   13.8871569669
  - # 5
    frequency:   13.8871569669
  - # 6
    frequency:   14.1004886994

- q-position: [    0.3469388,    0.0000000,    0.3469388 ]
  distance:    0.1282860
  band:
  - # 1
    frequency:    4.0622867813
  - # 2
    frequency:    4.0622867814
  - # 3
    frequency:    9.4217719786
  - # 4
    frequency:   13.8685509422
  - # 5
    frequency:   13.8685509422
  - # 6
    frequency:   14.0104740316

- q-position: [    0.3571429,    0.0000000,    0.3571429 ]
  distance:    0.1320591
  band:
  - # 1
    frequency:    4.0704435883
  - # 2
    frequency:    4.0704435884
  - # 3
    frequency:    9.6382420187
  - # 4
    frequency:   13.8542821389
  - # 5
    frequency:   13.8542821389
  - # 6
    frequency:   13.9173982364

- q-position: [    0.3673469,    0.0000000,    0.3673469 ]
  distance:    0.1358322
  band:
  - # 1
    frequency:    4.0745210918
  - # 2
    frequency:    4.0745210919
  - # 3
    frequency:    9.8506483487
  - # 4
    frequency:   13.8211428224
  - # 5
    frequency:   13.8439473838
  - # 6
    frequency:   13.8439473838

- q-position: [    0.3775510,    0.0000000,    0.3775510 ]
  distance:    0.1396054
  band:
  - # 1
    frequency:    4.0752278055
  - # 2
    frequency:    4.0752278056
  - # 3
    frequency:   10.0589406402
  - # 4
    frequency:   13.7215738961
  - # 5
    frequency:   13.8370920569
  - # 6
    frequency:   13.8370920570

- q-position: [    0.3877551,    0.0000000,    0.3877551 ]
  distance:    0.1433785
  band:
  - # 1
    frequency:    4.0732539820
  - # 2
    frequency:    4.0732539821
  - # 3
    frequency:   10.2630647268
  - # 4
    frequency:   13.6185462345
  - # 5
    frequency:   13.8332268141
  - # 6
    frequency:   13.8332268141

- q-position: [    0.3979592,    0.0000000,    0.3979592 ]
  distance:    0.1471516
  band:
  - # 1
    frequency:    4.0692562903
  - # 2
    frequency:    4.0692562903
  - # 3
    frequency:   10.4629630215
  - # 4
    frequency:   13.5119076454
  - # 5
    frequency:   13.8318439576
  - # 6
    frequency:   13.8318439577

- q-position: [    0.4081633,    0.0000000,    0.4081633 ]
  distance:    0.1509247
  band:
  - # 1
    frequency:    4.0638453232
  - # 2
    frequency:    4.0638453233
  - # 3
    frequency:   10.6585751989
  - # 4
    frequency:   13.4015034214
  - # 5
    frequency:   13.8324328597
  - # 6
    frequency:   13.8324328597

- q-position: [    0.4183673,    0.0000000,    0.4183673 ]
  distance:    0.1546978
  band:
  - # 1
    frequency:    4.0575762534
  - # 2
    frequency:    4.0575762534
  - # 3
    frequency:   10.8498391554
  - # 4
    frequency:   13.2871806984
  - # 5
    frequency:   13.8344940116
  - # 6
    frequency:   13.8344940116

- q-position: [    0.4285714,    0.0000000,    0.4285714 ]
  distance:    0.1584710
  band:
  - # 1
    frequency:    4.0509426762
  - # 2
    frequency:    4.0509426763
  - # 3
    frequency:   11.0366922494
  - # 4
    frequency:   13.1687925487
  - # 5
    frequency:   13.8375514439
  - # 6
    frequency:   13.8375514439

- q-position: [    0.4387755,    0.0000000,    0.4387755 ]
  distance:    0.1622441
  band:
  - # 1
    frequency:    4.0443734326
  - # 2
    frequency:    4.0443734326
  - # 3
    frequency:   11.2190728133
  - # 4
    frequency:   13.0462016629
  - # 5
    frequency:   13.8411634018
  - # 6
    frequency:   13.8411634019

- q-position: [    0.4489796,    0.0000000,    0.4489796 ]
  distance:    0.1660172
  band:
  - # 1
    frequency:    4.0382319936
  - # 2
    frequency:    4.0382319937
  - # 3
    frequency:   11.3969219112
  - # 4
    frequency:   12.9192835012
  - # 5
    frequency:   13.8449312840
  - # 6
    frequency:   13.8449312840

- q-position: [    0.4591837,    0.0000000,    0.4591837 ]
  distance:    0.1697903
  band:
  - # 1
    frequency:    4.0328178408
  - # 2
    frequency:    4.0328178408
  - # 3
    frequency:   11.5701853037
  - # 4
    frequency:   12.7879288292
  - # 5
    frequency:   13.8485069304
  - # 6
    frequency:   13.8485069304

- q-position: [    0.4693878,    0.0000000,    0.4693878 ]
  distance:    0.1735634
  band:
  - # 1
    frequency:    4.0283691878
  - # 2
    frequency:    4.0283691878
  - # 3
    frequency:   11.7388155638
  - # 4
    frequency:   12.6520455858
  - # 5
    frequency:   13.8515984011
  - # 6
    frequency:   13.8515984011

- q-position: [    0.4795918,    0.0000000,    0.4795918 ]
  distance:    0.1773365
  band:
  - # 1
    frequency:    4.0250663649
  - # 2
    frequency:    4.0250663649
  - # 3
    frequency:   11.9027742742
  - # 4
    frequency:   12.5115600631
  - # 5
    frequency:   13.8539744079
  - # 6
    frequency:   13.8539744079

- q-position: [    0.4897959,    0.0000000,    0.4897959 ]
  distance:    0.1811097
  band:
  - # 1
    frequency:    4.0230352235
  - # 2
    frequency:    4.0230352235
  - # 3
    frequency:   12.0620342226
  - # 4
    frequency:   12.3664174107
  - # 5
    frequency:   13.8554675620
  - # 6
    frequency:   13.8554675620

- q-position: [    0.5000000,    0.0000000,    0.5000000 ]
  distance:    0.1848828
  band:
  - # 1
    frequency:    4.0223500014
  - # 2
    frequency:    4.0223500014
  - # 3
    frequency:   12.2165815012
  - # 4
    frequency:   12.2165815012
  - # 5
    frequency:   13.8559765801
  - # 6
    frequency:   13.8559765801

- q-position: [    0.5000000,    0.0000000,    0.5000000 ]
  distance:    0.1848828
  band:
  - # 1
    frequency:    4.0223500014
  - # 2
    frequency:    4.0223500014
  - # 3
    frequency:   12.2165815012
  - # 4
    frequency:   12.2165815012
  - # 5
    frequency:   13.8559765801
  - # 6
    frequency:   13.8559765801

- q-position: [    0.5025510,    0.0051020,    0.5025510 ]
  distance:    0.1862168
  band:
  - # 1
    frequency:    4.0226656539
  - # 2
    frequency:    4.0238147857
  - # 3
    frequency:   12.2157307866
  - # 4
    frequency:   12.2158116731
  - # 5
    frequency:   13.8559366577
  - # 6
    frequency:   13.8563863976

- q-position: [    0.5051020,    0.0102041,    0.5051020 ]
  distance:    0.1875508
  band:
  - # 1
    frequency:    4.0236115888
  - # 2
    frequency:    4.0282034705
  - # 3
    frequency:   12.2131816040
  - # 4
    frequency:   12.2135037799
  - # 5
    frequency:   13.8558170862
  - # 6
    frequency:   13.8576132142

- q-position: [    0.5076531,    0.0153061,    0.5076531 ]
  distance:    0.1888848
  band:
  - # 1
    frequency:    4.0251847437
  - # 2
    frequency:    4.0354991123
  - # 3
    frequency:   12.2089427744
  - # 4
    frequency:   12.2096625961
  - # 5
    frequency:   13.8556184516
  - # 6
    frequency:   13.8596491839

- q-position: [    0.5102041,    0.0204082,    0.5102041 ]
  distance:    0.1902188
  band:
  - # 1
    frequency:    4.0273800306
  - # 2
    frequency:    4.0456736764
  - # 3
    frequency:   12.2030287913
  - # 4
    frequency:   12.2042960794
  - # 5
    frequency:   13.8553417293
  - # 6
    frequency:   13.8624814354

- q-position: [    0.5127551,    0.0255102,    0.5127551 ]
  distance:    0.1915528
  band:
  - # 1
    frequency:    4.0301903602
  - # 2
    frequency:    4.0586883351
  - # 3
    frequency:   12.1954595201
  - # 4
    frequency:   12.1974153725
  - # 5
    frequency:   13.8549882815
  - # 6
    frequency:   13.8660923680

- q-position: [    0.5153061,    0.0306122,    0.5153061 ]
  distance:    0.1928868
  band:
  - # 1
    frequency:    4.0336066753
  - # 2
    frequency:    4.0744938751
  - # 3
    frequency:   12.1862597988
  - # 4
    frequency:   12.1890348037
  - # 5
    frequency:   13.8545598543
  - # 6
    frequency:   13.8704600454

- q-position: [    0.5178571,    0.0357143,    0.5178571 ]
  distance:    0.1942208
  band:
  - # 1
    frequency:    4.0376179931
  - # 2
    frequency:    4.0930312005
  - # 3
    frequency:   12.1754589585
  - # 4
    frequency:   12.1791718892
  - # 5
    frequency:   13.8540585731
  - # 6
    frequency:   13.8755586667

- q-position: [    0.5204082,    0.0408163,    0.5204082 ]
  distance:    0.1955548
  band:
  - # 1
    frequency:    4.0422114566
  - # 2
    frequency:    4.1142319178
  - # 3
    frequency:   12.1630902873
  - # 4
    frequency:   12.1678473354
  - # 5
    frequency:   13.8534869381
  - # 6
    frequency:   13.8813590939

- q-position: [    0.5229592,    0.0459184,    0.5229592 ]
  distance:    0.1968888
  band:
  - # 1
    frequency:    4.0473723933
  - # 2
    frequency:    4.1380189893
  - # 3
    frequency:   12.1491904573
  - # 4
    frequency:   12.1550850410
  - # 5
    frequency:   13.8528478183
  - # 6
    frequency:   13.8878294130

- q-position: [    0.5255102,    0.0510204,    0.5255102 ]
  distance:    0.1982228
  band:
  - # 1
    frequency:    4.0530843824
  - # 2
    frequency:    4.1643074360
  - # 3
    frequency:   12.1337989392
  - # 4
    frequency:   12.1409121001
  - # 5
    frequency:   13.8521444444
  - # 6
    frequency:   13.8949355075

- q-position: [    0.5280612,    0.0561224,    0.5280612 ]
  distance:    0.1995568
  band:
  - # 1
    frequency:    4.0593293279
  - # 2
    frequency:    4.1930050763
  - # 3
    frequency:   12.1169574225
  - # 4
    frequency:   12.1253588050
  - # 5
    frequency:   13.8513804017
  - # 6
    frequency:   13.9026416230

- q-position: [    0.5306122,    0.0612245,    0.5306122 ]
  distance:    0.2008908
  band:
  - # 1
    frequency:    4.0660875394
  - # 2
    frequency:    4.2240132826
  - # 3
    frequency:   12.0987092594
  - # 4
    frequency:   12.1084586500
  - # 5
    frequency:   13.8505596214
  - # 6
    frequency:   13.9109109087

- q-position: [    0.5331633,    0.0663265,    0.5331633 ]
  distance:    0.2022248
  band:
  - # 1
    frequency:    4.0733378171
  - # 2
    frequency:    4.2572277408
  - # 3
    frequency:   12.0790989452
  - # 4
    frequency:   12.0902483341
  - # 5
    frequency:   13.8496863714
  - # 6
    frequency:   13.9197059190

- q-position: [    0.5357143,    0.0714286,    0.5357143 ]
  distance:    0.2035588
  band:
  - # 1
    frequency:    4.0810575425
  - # 2
    frequency:    4.2925392000
  - # 3
    frequency:   12.0581716446
  - # 4
    frequency:   12.0707677649
  - # 5
    frequency:   13.8487652464
  - # 6
    frequency:   13.9289890691

- q-position: [    0.5382653,    0.0765306,    0.5382653 ]
  distance:    0.2048928
  band:
  - # 1
    frequency:    4.0892227734
  - # 2
    frequency:    4.3298341986
  - # 3
    frequency:   12.0359727715
  - # 4
    frequency:   12.0500600615
  - # 5
    frequency:   13.8478011569
  - # 6
    frequency:   13.9387230351

- q-position: [    0.5408163,    0.0816327,    0.5408163 ]
  distance:    0.2062268
  band:
  - # 1
    frequency:    4.0978083421
  - # 2
    frequency:    4.3689957578
  - # 3
    frequency:   12.0125476236
  - # 4
    frequency:   12.0281715572
  - # 5
    frequency:   13.8467993180
  - # 6
    frequency:   13.9488710982

- q-position: [    0.5433673,    0.0867347,    0.5433673 ]
  distance:    0.2075608
  band:
  - # 1
    frequency:    4.1067879561
  - # 2
    frequency:    4.4099040335
  - # 3
    frequency:   11.9879410740
  - # 4
    frequency:   12.0051518019
  - # 5
    frequency:   13.8457652371
  - # 6
    frequency:   13.9593974315

- q-position: [    0.5459184,    0.0918367,    0.5459184 ]
  distance:    0.2088948
  band:
  - # 1
    frequency:    4.1161343015
  - # 2
    frequency:    4.4524369210
  - # 3
    frequency:   11.9621973162
  - # 4
    frequency:   11.9810535636
  - # 5
    frequency:   13.8447047011
  - # 6
    frequency:   13.9702673306

- q-position: [    0.5484694,    0.0969388,    0.5484694 ]
  distance:    0.2102288
  band:
  - # 1
    frequency:    4.1258191469
  - # 2
    frequency:    4.4964706073
  - # 3
    frequency:   11.9353596606
  - # 4
    frequency:   11.9559328277
  - # 5
    frequency:   13.8436237625
  - # 6
    frequency:   13.9814473935

- q-position: [    0.5510204,    0.1020408,    0.5510204 ]
  distance:    0.2115628
  band:
  - # 1
    frequency:    4.1358134486
  - # 2
    frequency:    4.5418800695
  - # 3
    frequency:   11.9074703774
  - # 4
    frequency:   11.9298487962
  - # 5
    frequency:   13.8425287261
  - # 6
    frequency:   13.9929056523

- q-position: [    0.5535714,    0.1071429,    0.5535714 ]
  distance:    0.2128968
  band:
  - # 1
    frequency:    4.1460874556
  - # 2
    frequency:    4.5885395179
  - # 3
    frequency:   11.8785705802
  - # 4
    frequency:   11.9028638828
  - # 5
    frequency:   13.8414261337
  - # 6
    frequency:   14.0046116631

- q-position: [    0.5561224,    0.1122449,    0.5561224 ]
  distance:    0.2142307
  band:
  - # 1
    frequency:    4.1566108138
  - # 2
    frequency:    4.6363227842
  - # 3
    frequency:   11.8487001469
  - # 4
    frequency:   11.8750437068
  - # 5
    frequency:   13.8403227489
  - # 6
    frequency:   14.0165365590

- q-position: [    0.5586735,    0.1173469,    0.5586735 ]
  distance:    0.2155647
  band:
  - # 1
    frequency:    4.1673526694
  - # 2
    frequency:    4.6851036574
  - # 3
    frequency:   11.8178976700
  - # 4
    frequency:   11.8464570818
  - # 5
    frequency:   13.8392255422
  - # 6
    frequency:   14.0286530713

- q-position: [    0.5612245,    0.1224490,    0.5612245 ]
  distance:    0.2168987
  band:
  - # 1
    frequency:    4.1782817705
  - # 2
    frequency:    4.7347561696
  - # 3
    frequency:   11.7862004334
  - # 4
    frequency:   11.8171760007
  - # 5
    frequency:   13.8381416740
  - # 6
    frequency:   14.0409355255

- q-position: [    0.5637755,    0.1275510,    0.5637755 ]
  distance:    0.2182327
  band:
  - # 1
    frequency:    4.1893665668
  - # 2
    frequency:    4.7851548359
  - # 3
    frequency:   11.7536444101
  - # 4
    frequency:   11.7872756147
  - # 5
    frequency:   13.8370784788
  - # 6
    frequency:   14.0533598150

- q-position: [    0.5663265,    0.1326531,    0.5663265 ]
  distance:    0.2195667
  band:
  - # 1
    frequency:    4.2005753063
  - # 2
    frequency:    4.8361748521
  - # 3
    frequency:   11.7202642761
  - # 4
    frequency:   11.7568342048
  - # 5
    frequency:   13.8360434477
  - # 6
    frequency:   14.0659033577

- q-position: [    0.5688776,    0.1377551,    0.5688776 ]
  distance:    0.2209007
  band:
  - # 1
    frequency:    4.2118761295
  - # 2
    frequency:    4.8876922567
  - # 3
    frequency:   11.6860934381
  - # 4
    frequency:   11.7259331461
  - # 5
    frequency:   13.8350442121
  - # 6
    frequency:   14.0785450402

- q-position: [    0.5714286,    0.1428571,    0.5714286 ]
  distance:    0.2222347
  band:
  - # 1
    frequency:    4.2232371607
  - # 2
    frequency:    4.9395840599
  - # 3
    frequency:   11.6511640703
  - # 4
    frequency:   11.6946568600
  - # 5
    frequency:   13.8340885254
  - # 6
    frequency:   14.0912651510

- q-position: [    0.5739796,    0.1479592,    0.5739796 ]
  distance:    0.2235687
  band:
  - # 1
    frequency:    4.2346265951
  - # 2
    frequency:    4.9917283481
  - # 3
    frequency:   11.6155071584
  - # 4
    frequency:   11.6630927565
  - # 5
    frequency:   13.8331842461
  - # 6
    frequency:   14.1040453077

- q-position: [    0.5765306,    0.1530612,    0.5765306 ]
  distance:    0.2249027
  band:
  - # 1
    frequency:    4.2460127831
  - # 2
    frequency:    5.0440043678
  - # 3
    frequency:   11.5791525483
  - # 4
    frequency:   11.6313311602
  - # 5
    frequency:   13.8323393197
  - # 6
    frequency:   14.1168683789

- q-position: [    0.5790816,    0.1581633,    0.5790816 ]
  distance:    0.2262367
  band:
  - # 1
    frequency:    4.2573643099
  - # 2
    frequency:    5.0962925953
  - # 3
    frequency:   11.5421289972
  - # 4
    frequency:   11.5994652212
  - # 5
    frequency:   13.8315617605
  - # 6
    frequency:   14.1297184039

- q-position: [    0.5816327,    0.1632653,    0.5816327 ]
  distance:    0.2275707
  band:
  - # 1
    frequency:    4.2686500716
  - # 2
    frequency:    5.1484747990
  - # 3
    frequency:   11.5044642264
  - # 4
    frequency:   11.5675908057
  - # 5
    frequency:   13.8308596341
  - # 6
    frequency:   14.1425805113

- q-position: [    0.5841837,    0.1683673,    0.5841837 ]
  distance:    0.2289047
  band:
  - # 1
    frequency:    4.2798393474
  - # 2
    frequency:    5.2004340985
  - # 3
    frequency:   11.4661849738
  - # 4
    frequency:   11.5358063646
  - # 5
    frequency:   13.8302410393
  - # 6
    frequency:   14.1554408379

- q-position: [    0.5867347,    0.1734694,    0.5867347 ]
  distance:    0.2302387
  band:
  - # 1
    frequency:    4.2909018671
  - # 2
    frequency:    5.2520550294
  - # 3
    frequency:   11.4273170451
  - # 4
    frequency:   11.5042127771
  - # 5
    frequency:   13.8297140898
  - # 6
    frequency:   14.1682864495

- q-position: [    0.5892857,    0.1785714,    0.5892857 ]
  distance:    0.2315727
  band:
  - # 1
    frequency:    4.3018078749
  - # 2
    frequency:    5.3032236167
  - # 3
    frequency:   11.3878853633
  - # 4
    frequency:   11.4729131646
  - # 5
    frequency:   13.8292868967
  - # 6
    frequency:   14.1811052635

- q-position: [    0.5918367,    0.1836735,    0.5918367 ]
  distance:    0.2329067
  band:
  - # 1
    frequency:    4.3125281885
  - # 2
    frequency:    5.3538274655
  - # 3
    frequency:   11.3479140166
  - # 4
    frequency:   11.4420126737
  - # 5
    frequency:   13.8289675502
  - # 6
    frequency:   14.1938859750

- q-position: [    0.5943878,    0.1887755,    0.5943878 ]
  distance:    0.2342407
  band:
  - # 1
    frequency:    4.3230342549
  - # 2
    frequency:    5.4037558721
  - # 3
    frequency:   11.3074263024
  - # 4
    frequency:   11.4116182220
  - # 5
    frequency:   13.8287641027
  - # 6
    frequency:   14.2066179853

- q-position: [    0.5969388,    0.1938776,    0.5969388 ]
  distance:    0.2355747
  band:
  - # 1
    frequency:    4.3332982009
  - # 2
    frequency:    5.4528999633
  - # 3
    frequency:   11.2664447691
  - # 4
    frequency:   11.3818382064
  - # 5
    frequency:   13.8286845507
  - # 6
    frequency:   14.2192913358

- q-position: [    0.5994898,    0.1989796,    0.5994898 ]