   2  128
1 1
    13.426610940357165    -0.000000000000000     0.000000000000001
    -0.000000000000000    13.426610940357159     0.000000000000000
    -0.000000000000001     0.000000000000004    13.426610940357167
1 2
     0.440410733441101     0.092880297517588     0.092880297522391
    -0.098245981454045    -0.173393353083956    -0.179070751439772
    -0.098245981461155    -0.179070751443888    -0.173393353086619
1 3
     0.198240097182140     0.000000000003173     0.000000000005416
    -0.000000000003136    -0.000446685750228    -0.032447191998719
    -0.000000000005410    -0.032447191999474    -0.000446685750240
1 4
     0.440410733426930    -0.092880297493991    -0.092880297487059
     0.098245981430675    -0.173393353079467    -0.179070751432631
     0.098245981425889    -0.179070751436858    -0.173393353076937
1 5
    -0.173393353083988    -0.098245980938087    -0.179070750970474
     0.092880298003157     0.440410733439882     0.092880297762187
    -0.179070751911966    -0.098245981199433    -0.173393353085367
1 6
    -0.017610636140605     0.031014563884193    -0.020858983615520
     0.031014564046330    -0.017610636140541    -0.020858983669808
    -0.013054955057962    -0.013054955024116     0.001006687976268
1 7
    -0.017610636140313     0.020858983615852    -0.031014563883343
     0.013054955058021     0.001006687975988    -0.013054955022176
    -0.031014564047460    -0.020858983672214    -0.017610636140553
1 8
    -0.173393353076937     0.179070750969091     0.098245980917817
     0.179070751906265    -0.173393353085333    -0.098245981194236
    -0.092880297978075     0.092880297754164     0.440410733432796
1 9
    -0.000446685750234    -0.000000000002963    -0.032447191913792
     0.000000000002932     0.198240097182140     0.000000000004162
    -0.032447192084401    -0.000000000004131    -0.000446685750234
1 10
     0.001006687976028     0.013054954989964    -0.013054954987965
     0.020858983724715    -0.017610636140301    -0.031014563964391
    -0.020858983726790    -0.031014563966371    -0.017610636140605
1 11
    -0.000446685750240     0.032447191914170    -0.000000000004415
     0.032447192084023    -0.000446685750228    -0.000000000002962
     0.000000000004421     0.000000000002925     0.198240097182140
1 12
     0.001339434452831     0.020834696312177    -0.020834696310048
     0.013118807616708    -0.017879110273072    -0.031435738972862
    -0.013118807618731    -0.031435738974852    -0.017879110272801
1 13
    -0.173393353079501     0.098245980916807    -0.179070750964535
    -0.092880297982038     0.440410733428150    -0.092880297734638
    -0.179070751906175     0.098245981172045    -0.173393353078122
1 14
    -0.173393353086619     0.179070750970090    -0.098245980942090
     0.179070751907704    -0.173393353078090     0.098245981179930
     0.092880298002415    -0.092880297740085     0.440410733435236
1 15
    -0.017879110273084     0.013118807548316    -0.031435738890661
     0.020834696420906     0.001339434452889    -0.020834696364576
    -0.031435739056994    -0.013118807584360    -0.017879110272847
1 16
    -0.017879110272801     0.031435738891804    -0.013118807548384
     0.031435739056147    -0.017879110272835    -0.013118807582405
    -0.020834696421203    -0.020834696367002     0.001339434452594
1 17
    -0.173393353086553    -0.179070750973796    -0.098245980946586
    -0.179070751911242    -0.173393353085399    -0.098245981201019
     0.092880298011333     0.092880297765433     0.440410733442478
1 18
    -0.017610636140490    -0.020858983615236     0.031014563883652
    -0.013054955058249     0.001006687976165    -0.013054955023560
     0.031014564046974    -0.020858983670423    -0.017610636140553
1 19
    -0.017610636140198    -0.031014563883532     0.020858983615070
    -0.031014564047387    -0.017610636140552    -0.020858983671865
     0.013054955058601    -0.013054955022235     0.001006687975873
1 20
    -0.173393353079501     0.098245980928538     0.179070750968276
    -0.092880297984153     0.440410733435395     0.092880297753310
     0.179070751909678    -0.098245981200172    -0.173393353085367
1 21
     0.001006687976218    -0.013054954990016    -0.013054954989197
    -0.020858983724355    -0.017610636140502     0.031014563964695
    -0.020858983725280     0.031014563965878    -0.017610636140594
1 22
    -0.011001942363755     0.000000000000000    -0.000000000000000
     0.000000000000000    -0.011001942363755    -0.000000000000000
     0.000000000000000    -0.000000000000000    -0.011001942363755
1 23
     0.001006687975633     0.013054954988886     0.013054954989406
     0.020858983725492    -0.017610636140313     0.031014563965448
     0.020858983725060     0.031014563965710    -0.017610636140198
1 24
    -0.008846164277116     0.000000000000173     0.000000000000374
    -0.000000000000170    -0.023630956884937     0.000078941617958
    -0.000000000000374     0.000078941617960    -0.023630956884937
1 25
    -0.017610636140594    -0.031014563884980    -0.020858983617195
    -0.031014564045833    -0.017610636140263     0.020858983669584
    -0.013054955056488     0.013054955024509     0.001006687975978
1 26
    -0.017610636140313     0.020858983615965     0.031014563884137
     0.013054955057501     0.001006687975686     0.013054955023546
     0.031014564046968     0.020858983670455    -0.017610636140251
1 27
    -0.011062963563771    -0.000279799106083    -0.000867249494808
    -0.000279799107548    -0.011062963563760    -0.000867249497098
     0.000869535126741     0.000869535124486    -0.013996692972857
1 28
    -0.011062963563707     0.000867249494959     0.000279799106048
    -0.000869535126807    -0.013996692972921     0.000869535124422
     0.000279799107519    -0.000867249497140    -0.011062963563760
1 29
     0.440410733436612    -0.092880297499559     0.092880297514616
     0.098245981443488    -0.173393353079534     0.179070751437608
    -0.098245981460689     0.179070751441563    -0.173393353086553
1 30
    -0.023630956884937    -0.000000000000173     0.000078941617752
     0.000000000000171    -0.008846164277116     0.000000000000281
     0.000078941618167    -0.000000000000278    -0.023630956884937
1 31
    -0.013996692972910    -0.000869535122263     0.000869535122134
     0.000867249499495    -0.011062963563707     0.000279799106786
    -0.000867249499386     0.000279799106792    -0.011062963563771
1 32
    -0.023630956884937    -0.000078941617753    -0.000000000000376
    -0.000078941618166    -0.023630956884937    -0.000000000000284
     0.000000000000376     0.000000000000281    -0.008846164277116
1 33
    -0.000446685750228    -0.032447191914170    -0.000000000005650
    -0.032447192084023    -0.000446685750240    -0.000000000004605
     0.000000000005644     0.000000000004569     0.198240097182140
1 34
     0.001006687975823    -0.013054954987953     0.013054954989643
    -0.020858983726720    -0.017610636140491    -0.031014563965752
     0.020858983725124    -0.031014563965216    -0.017610636140210
1 35
    -0.000446685750234    -0.000000000001739     0.032447191913792
     0.000000000001696     0.198240097182140     0.000000000003406
     0.032447192084401    -0.000000000003363    -0.000446685750234
1 36
     0.001339434453047    -0.020834696310130     0.020834696311766
    -0.013118807618748    -0.017879110272897    -0.031435738974012
     0.013118807617025    -0.031435738973486    -0.017879110273192
1 37
    -0.017610636140490    -0.020858983617462    -0.031014563884446
    -0.013054955056406     0.001006687975863     0.013054955023608
    -0.031014564046482     0.020858983670778    -0.017610636140251
1 38
    -0.017610636140210     0.031014563884318     0.020858983615758
     0.031014564046889    -0.017610636140251     0.020858983670670
     0.013054955057735     0.013054955023247     0.001006687975583
1 39
    -0.011062963563748    -0.000867249494846    -0.000279799106068
     0.000869535126783    -0.013996692972881     0.000869535124473
    -0.000279799107539    -0.000867249497103    -0.011062963563760
1 40
    -0.011062963563683     0.000279799106039     0.000867249494977
     0.000279799107504    -0.011062963563760    -0.000867249497104
    -0.000869535126869     0.000869535124451    -0.013996692972945
1 41
     0.198240097182140     0.000000000001529     0.000000000004649
    -0.000000000001492    -0.000446685750240     0.032447191998719
    -0.000000000004655     0.032447191999474    -0.000446685750228
1 42
    -0.013996692972869     0.000869535122227     0.000869535122173
    -0.000867249499393    -0.011062963563748    -0.000279799106806
    -0.000867249499360    -0.000279799106813    -0.011062963563771
1 43
    -0.011766746694043    -0.000000000000000    -0.000000000000000
    -0.000000000000000    -0.011766746694043    -0.000000000000000
     0.000000000000000    -0.000000000000000    -0.011766746694043
1 44
    -0.013996692972998    -0.000869535122282    -0.000869535122315
     0.000867249499447    -0.011062963563707    -0.000279799106742
     0.000867249499502    -0.000279799106748    -0.011062963563683
1 45
    -0.017879110272897    -0.013118807549956    -0.031435738891654
    -0.020834696419261     0.001339434452988     0.020834696366041
    -0.031435739055903     0.013118807582892    -0.017879110273134
1 46
    -0.011062963563771     0.000279799106050    -0.000867249494818
     0.000279799107515    -0.011062963563694     0.000867249497230
     0.000869535126710    -0.000869535124576    -0.013996692972923
1 47
    -0.011062963563707     0.000867249494904    -0.000279799106015
    -0.000869535126841    -0.013996692972987    -0.000869535124578
    -0.000279799107486     0.000867249497207    -0.011062963563695
1 48
    -0.017879110273192     0.031435738891243     0.013118807548608
     0.031435739056018    -0.017879110273134     0.013118807583266
     0.020834696420991     0.020834696366134     0.001339434453284
1 49
    -0.173393353076871    -0.179070750965385     0.098245980908672
    -0.179070751902727    -0.173393353078156     0.098245981168570
    -0.092880297973485    -0.092880297733212     0.440410733425554
1 50
    -0.173393353083988    -0.098245980936310     0.179070750966733
     0.092880297991632     0.440410733432637    -0.092880297734104
     0.179070751908463     0.098245981181260    -0.173393353078122
1 51
    -0.017879110273180    -0.031435738890748     0.013118807547721
    -0.031435739056812    -0.017879110272847    -0.013118807584303
     0.020834696421691    -0.020834696364917     0.001339434452985
1 52
    -0.017879110272897    -0.013118807548106     0.031435738891154
    -0.020834696421514     0.001339434452702    -0.020834696366364
     0.031435739056689    -0.013118807582952    -0.017879110272847
1 53
     0.440410733431419     0.092880297505014    -0.092880297487759
    -0.098245981448715    -0.173393353084022     0.179070751434795
     0.098245981433766     0.179070751439183    -0.173393353076871
1 54
    -0.023630956884937     0.000078941617753    -0.000000000000373
     0.000078941618166    -0.023630956884937    -0.000000000000280
     0.000000000000373     0.000000000000277    -0.008846164277116
1 55
    -0.013996692972957     0.000869535122180    -0.000869535122289
    -0.000867249499412    -0.011062963563748     0.000279799106762
     0.000867249499541     0.000279799106769    -0.011062963563683
1 56
    -0.023630956884937    -0.000000000000176    -0.000078941617752
     0.000000000000174    -0.008846164277116     0.000000000000282
    -0.000078941618167    -0.000000000000280    -0.023630956884937
1 57
    -0.017879110272789    -0.031435738892299    -0.013118807549892
    -0.031435739055353    -0.017879110273146     0.013118807581979
    -0.020834696419532     0.020834696367234     0.001339434452893
1 58
    -0.011062963563748    -0.000867249494879     0.000279799106035
     0.000869535126728    -0.013996692972946    -0.000869535124541
     0.000279799107506     0.000867249497258    -0.011062963563695
1 59
    -0.011062963563683    -0.000279799106006     0.000867249494946
    -0.000279799107471    -0.011062963563695     0.000867249497196
    -0.000869535126879    -0.000869535124582    -0.013996692973011
1 60
    -0.017879110273084     0.013118807548837     0.031435738891161
     0.020834696420764     0.001339434453176     0.020834696366364
     0.031435739056209     0.013118807582971    -0.017879110273134
1 61
     0.001339434452656    -0.020834696312508    -0.020834696311586
    -0.013118807616656    -0.017879110272909     0.031435738973347
    -0.013118807617504     0.031435738974542    -0.017879110272789
1 62
    -0.008846164277116     0.000000000000177     0.000000000000375
    -0.000000000000174    -0.023630956884937    -0.000078941617958
    -0.000000000000375    -0.000078941617960    -0.023630956884937
1 63
     0.001339434453222     0.020834696311371     0.020834696311815
     0.013118807617800    -0.017879110273084     0.031435738973526
     0.013118807617263     0.031435738973797    -0.017879110273180
1 64
    -0.010607483668391     0.000000000000000    -0.000000000000000
     0.000000000000000    -0.010607483668391    -0.000000000000000
     0.000000000000000    -0.000000000000000    -0.010607483668391
1 65
    -3.301375485838182    -2.318550261972809    -2.318550261977524
    -2.318550274139466    -3.301375485838610    -2.318550268061067
    -2.318550274135180    -2.318550268052066    -3.301375485839041
1 66
    -0.226849701562315     0.046750955202156     0.046750955198644
     0.046042681563659    -0.019223277166411    -0.012884599419688
     0.046042681567221    -0.012884599421249    -0.019223277166434
1 67
    -0.226849701562351    -0.046750955206417    -0.046750955208857
    -0.046042681559475    -0.019223277166412    -0.012884599420931
    -0.046042681557003    -0.012884599419970    -0.019223277166398
1 68
    -3.301375485839039     2.318550262090262     2.318550262032392
     2.318550274022013    -3.301375485837752    -2.318550267997625
     2.318550274081170    -2.318550268114652    -3.301375485839041
1 69
    -0.019223277166431     0.046042681322468    -0.012884599386262
     0.046750955447147    -0.226849701562311     0.046750955322606
    -0.012884599454679     0.046042681445065    -0.019223277166419
1 70
     0.006773784407081    -0.026116829960653     0.026116829959374
    -0.026116830097036     0.006773784407067     0.026116830027572
     0.026116830098301     0.026116830030117     0.006773784407081
1 71
    -0.019223277166398     0.012884599384683    -0.046042681315925
     0.012884599456240    -0.019223277166434     0.046042681446212
    -0.046750955453637     0.046750955321520    -0.226849701562329
1 72
     0.002812027304441    -0.032212663985412     0.032212663982153
    -0.031783521345180     0.037495352361001     0.042777224962932
     0.031783521348409     0.042777224966301     0.037495352361006
1 73
    -0.019223277166397    -0.046042681318041    -0.012884599386909
    -0.046750955451493    -0.226849701562355    -0.046750955330214
    -0.012884599453988    -0.046042681437539    -0.019223277166409
1 74
    -0.019223277166434     0.012884599388788     0.046042681326934
     0.012884599452127    -0.019223277166390    -0.046042681437652
     0.046750955442634    -0.046750955330003    -0.226849701562337
1 75
    -0.002112564513121    -0.009334644370459     0.021279070500675
    -0.009334644419053    -0.002112564513129     0.021279070556449
     0.021144960944064     0.021144960888647     0.019062669185339
1 76
    -0.002112564513124    -0.021279070502502     0.009334644369561
    -0.021144960942255     0.019062669185333     0.021144960887028
     0.009334644419945     0.021279070558082    -0.002112564513120
1 77
    -3.301375485839039     2.318550261885362    -2.318550261944089
     2.318550274227769    -3.301375485838610     2.318550268115077
    -2.318550274168615     2.318550267997197    -3.301375485838181
1 78
     0.037495352361020    -0.031783521179271     0.042777224851162
    -0.032212664153555     0.002812027304421     0.032212664066489
     0.042777225078051     0.031783521265208     0.037495352361007
1 79
     0.019062669185344    -0.021144960831758     0.021144960831947
    -0.021279070613695    -0.002112564513134     0.009334644393863
     0.021279070613501     0.009334644395653    -0.002112564513121
1 80
     0.037495352361006    -0.042777224852863     0.031783521179000
    -0.042777225076384     0.037495352360987     0.031783521261709
     0.032212664153831     0.032212664070025     0.002812027304454
1 81
    -0.019223277166429    -0.012884599387052     0.046042681325353
    -0.012884599453908    -0.019223277166438     0.046042681444487
     0.046750955444209     0.046750955323279    -0.226849701562293
1 82
     0.006773784407072     0.026116829959330    -0.026116829959992
     0.026116830098359     0.006773784407077     0.026116830029504
    -0.026116830097693     0.026116830028176     0.006773784407081
1 83
    -0.019223277166397    -0.046042681319887     0.012884599385156
    -0.046750955449615    -0.226849701562345     0.046750955319938
     0.012884599455752     0.046042681447703    -0.019223277166419
1 84
     0.002812027304418     0.032212663982425    -0.032212663984922
     0.031783521348155     0.037495352361002     0.042777224965293
    -0.031783521345655     0.042777224963917     0.037495352361028
1 85
     0.006773784407072     0.026116829961638     0.026116829960987
     0.026116830096041     0.006773784407086    -0.026116830028181
     0.026116830096708    -0.026116830029499     0.006773784407072
1 86
     0.006773784407081    -0.026116829960315    -0.026116829960369
    -0.026116830097364     0.006773784407077    -0.026116830028895
    -0.026116830097316    -0.026116830028794     0.006773784407072
1 87
     0.005264129052538     0.001246247425774     0.001246247425666
     0.001302456972085     0.015133811940917     0.002995309834583
     0.001302456972194     0.002995309834618     0.015133811940919
1 88
     0.005264129052543    -0.001246247426159    -0.001246247426237
    -0.001302456971703     0.015133811940915     0.002995309834546
    -0.001302456971625     0.002995309834651     0.015133811940916
1 89
    -0.226849701562315    -0.046750955205306     0.046750955196559
    -0.046042681560576    -0.019223277166417     0.012884599418599
     0.046042681569257     0.012884599422339    -0.019223277166429
1 90
     0.015133811940917     0.001302456965241     0.002995309826735
     0.001246247432326     0.005264129052539     0.001246247428999
     0.002995309842466     0.001302456968714     0.015133811940918
1 91
     0.012426991387639    -0.001069740284033     0.001069740283981
    -0.001069740289619     0.012426991387639     0.001069740286774
     0.001069740289671     0.001069740286878     0.012426991387639
1 92
     0.015133811940916    -0.002995309826816    -0.001302456964908
    -0.002995309842383     0.015133811940917     0.001302456968622
    -0.001246247432660     0.001246247429094     0.005264129052541
1 93
     0.037495352360998     0.031783521181705     0.042777224853135
     0.032212664151117     0.002812027304438    -0.032212664068807
     0.042777225076096    -0.031783521262888     0.037495352361012
1 94
     0.015133811940916    -0.001302456964894     0.002995309826715
    -0.001246247432670     0.005264129052542    -0.001246247429444
     0.002995309842483    -0.001302456968270     0.015133811940915
1 95
     0.015133811940919    -0.002995309826704     0.001302456965294
    -0.002995309842496     0.015133811940915    -0.001302456968398
     0.001246247432273    -0.001246247429315     0.005264129052540
1 96
     0.037495352361028    -0.042777224852430    -0.031783521178873
    -0.042777225076767     0.037495352361015    -0.031783521262555
    -0.032212664153974    -0.032212664069166     0.002812027304404
1 97
    -0.019223277166394    -0.012884599386420    -0.046042681315326
    -0.012884599454460    -0.019223277166394    -0.046042681437232
    -0.046750955454241    -0.046750955330457    -0.226849701562373
1 98
    -0.019223277166431     0.046042681325287     0.012884599388016
     0.046750955444288    -0.226849701562321    -0.046750955328145
     0.012884599452916    -0.046042681439567    -0.019223277166409
1 99
    -0.002112564513129     0.021279070500923    -0.009334644370061
     0.021144960943819     0.019062669185337     0.021144960888316
    -0.009334644419449     0.021279070556783    -0.002112564513120
1 100
    -0.002112564513131     0.009334644369388    -0.021279070502251
     0.009334644420131    -0.002112564513126     0.021279070557417
    -0.021144960942499     0.021144960887674     0.019062669185346
1 101
    -0.226849701562351     0.046750955199740    -0.046750955207382
     0.046042681566065    -0.019223277166416     0.012884599422020
    -0.046042681558439     0.012884599418881    -0.019223277166394
1 102
     0.015133811940918     0.002995309826753     0.001302456965377
     0.002995309842449     0.015133811940918     0.001302456968743
     0.001246247432189     0.001246247428972     0.005264129052539
1 103
     0.012426991387639     0.001069740283979    -0.001069740284006
     0.001069740289673     0.012426991387639     0.001069740286853
    -0.001069740289646     0.001069740286799     0.012426991387639
1 104
     0.015133811940916    -0.001302456965073    -0.002995309826765
    -0.001246247432493     0.005264129052540     0.001246247429005
    -0.002995309842436     0.001302456968709     0.015133811940918
1 105
     0.019062669185333     0.021144960833056     0.021144960832974
     0.021279070612391    -0.002112564513119    -0.009334644394356
     0.021279070612481    -0.009334644395150    -0.002112564513125
1 106
     0.012426991387639     0.001069740284073     0.001069740284047
     0.001069740289579     0.012426991387639    -0.001069740286799
     0.001069740289606    -0.001069740286853     0.012426991387639
1 107
     0.012426991387639    -0.001069740284019    -0.001069740284021
    -0.001069740289633     0.012426991387639    -0.001069740286828
    -0.001069740289631    -0.001069740286824     0.012426991387639
1 108
     0.019062669185350    -0.021144960832082    -0.021144960831680
    -0.021279070613358    -0.002112564513130    -0.009334644394941
    -0.021279070613771    -0.009334644394582    -0.002112564513131
1 109
    -0.002112564513125     0.009334644371262     0.021279070501534
     0.009334644418248    -0.002112564513123    -0.021279070557751
     0.021144960943220    -0.021144960887348     0.019062669185337
1 110
     0.005264129052540    -0.001246247425960     0.001246247425690
    -0.001302456971905     0.015133811940916    -0.002995309834612
     0.001302456972174    -0.002995309834588     0.015133811940918
1 111
    -0.002112564513124    -0.021279070501776    -0.009334644370371
    -0.021144960942971     0.019062669185346    -0.021144960887292
    -0.009334644419147    -0.021279070557803    -0.002112564513133
1 112
     0.011502888321843    -0.000708436039959     0.000708436039924
    -0.000708436043658     0.011502888321842     0.000708436041774
     0.000708436043693     0.000708436041843     0.011502888321843
1 113
    -3.301375485838182    -2.318550262002814     2.318550261889220
    -2.318550274110317    -3.301375485839468     2.318550267943614
     2.318550274222626     2.318550268169518    -3.301375485838183
1 114
     0.037495352361012     0.042777224851231    -0.031783521177996
     0.042777225077994     0.037495352361003     0.031783521264617
    -0.032212664154837     0.032212664067095     0.002812027304432
1 115
     0.019062669185339     0.021144960831786    -0.021144960831096
     0.021279070613675    -0.002112564513123     0.009334644395434
    -0.021279070614356     0.009334644394078    -0.002112564513128
1 116
     0.037495352360998     0.031783521178482    -0.042777224851924
     0.032212664154378     0.002812027304442     0.032212664069117
    -0.042777225077311     0.031783521262586     0.037495352361007
1 117
     0.037495352360991     0.042777224854062     0.031783521181382
     0.042777225075157     0.037495352361031    -0.031783521261129
     0.032212664151467    -0.032212664070571     0.002812027304426
1 118
     0.015133811940915     0.002995309826767    -0.001302456964763
     0.002995309842430     0.015133811940916    -0.001302456968216
    -0.001246247432802    -0.001246247429496     0.005264129052543
1 119
     0.015133811940917     0.001302456965194    -0.002995309826685
     0.001246247432377     0.005264129052542    -0.001246247429312
    -0.002995309842513    -0.001302456968407     0.015133811940915
1 120
     0.037495352361020    -0.031783521179274    -0.042777224852372
    -0.032212664153557     0.002812027304416    -0.032212664069442
    -0.042777225076836    -0.031783521262290     0.037495352361012
1 121
    -0.002112564513129     0.021279070502353     0.009334644370871
     0.021144960942393     0.019062669185350    -0.021144960886439
     0.009334644418652    -0.021279070558660    -0.002112564513133
1 122
     0.005264129052541     0.001246247425878    -0.001246247426119
     0.001302456971983     0.015133811940918    -0.002995309834517
    -0.001302456971743    -0.002995309834682     0.015133811940915
1 123
    -0.002112564513128    -0.009334644370190    -0.021279070502103
    -0.009334644419326    -0.002112564513127    -0.021279070557728
    -0.021144960942640    -0.021144960887376     0.019062669185343
1 124
     0.011502888321842     0.000708436039923    -0.000708436039941
     0.000708436043694     0.011502888321842     0.000708436041827
    -0.000708436043676     0.000708436041790     0.011502888321843
1 125
     0.002812027304439     0.032212663985807     0.032212663984392
     0.031783521344778     0.037495352361018    -0.042777224963683
     0.031783521346213    -0.042777224965549     0.037495352360991
1 126
     0.002812027304419    -0.032212663984460    -0.032212663985137
    -0.031783521346137     0.037495352361016    -0.042777224964543
    -0.031783521345453    -0.042777224964669     0.037495352361012
1 127
     0.011502888321842     0.000708436039986     0.000708436039968
     0.000708436043631     0.011502888321843    -0.000708436041791
     0.000708436043649    -0.000708436041826     0.011502888321842
1 128
     0.011502888321843    -0.000708436039950    -0.000708436039951
    -0.000708436043667     0.011502888321842    -0.000708436041810
    -0.000708436043666    -0.000708436041807     0.011502888321842
65 1
    -3.301375485838181    -2.318550261972809    -2.318550261977524
    -2.318550274139465    -3.301375485838610    -2.318550268061067
    -2.318550274135180    -2.318550268052067    -3.301375485839041
65 2
    -3.301375485839040     2.318550262090262     2.318550262032392
     2.318550274022014    -3.301375485837752    -2.318550267997626
     2.318550274081170    -2.318550268114653    -3.301375485839041
65 3
    -0.226849701562351    -0.046750955206417    -0.046750955208857
    -0.046042681559475    -0.019223277166412    -0.012884599420931
    -0.046042681557003    -0.012884599419970    -0.019223277166398
65 4
    -0.226849701562315     0.046750955202156     0.046750955198644
     0.046042681563659    -0.019223277166411    -0.012884599419688
     0.046042681567221    -0.012884599421249    -0.019223277166434
65 5
    -3.301375485839038     2.318550261885362    -2.318550261944088
     2.318550274227769    -3.301375485838610     2.318550268115077
    -2.318550274168615     2.318550267997197    -3.301375485838181
65 6
     0.037495352361006    -0.042777224852863     0.031783521179000
    -0.042777225076384     0.037495352360987     0.031783521261709
     0.032212664153831     0.032212664070025     0.002812027304454
65 7
     0.019062669185343    -0.021144960831758     0.021144960831947
    -0.021279070613695    -0.002112564513134     0.009334644393863
     0.021279070613501     0.009334644395653    -0.002112564513121
65 8
     0.037495352361020    -0.031783521179271     0.042777224851162
    -0.032212664153555     0.002812027304421     0.032212664066489
     0.042777225078051     0.031783521265208     0.037495352361007
65 9
    -0.019223277166397    -0.046042681318041    -0.012884599386909
    -0.046750955451493    -0.226849701562355    -0.046750955330214
    -0.012884599453988    -0.046042681437539    -0.019223277166409
65 10
    -0.002112564513124    -0.021279070502502     0.009334644369561
    -0.021144960942255     0.019062669185333     0.021144960887028
     0.009334644419945     0.021279070558082    -0.002112564513120
65 11
    -0.002112564513121    -0.009334644370459     0.021279070500675
    -0.009334644419053    -0.002112564513129     0.021279070556449
     0.021144960944064     0.021144960888647     0.019062669185339
65 12
    -0.019223277166434     0.012884599388788     0.046042681326934
     0.012884599452127    -0.019223277166390    -0.046042681437652
     0.046750955442634    -0.046750955330003    -0.226849701562337
65 13
    -0.019223277166431     0.046042681322468    -0.012884599386262
     0.046750955447147    -0.226849701562311     0.046750955322606
    -0.012884599454679     0.046042681445065    -0.019223277166419
65 14
     0.002812027304441    -0.032212663985412     0.032212663982153
    -0.031783521345180     0.037495352361001     0.042777224962932
     0.031783521348409     0.042777224966301     0.037495352361006
65 15
    -0.019223277166398     0.012884599384683    -0.046042681315925
     0.012884599456240    -0.019223277166433     0.046042681446212
    -0.046750955453637     0.046750955321520    -0.226849701562329
65 16
     0.006773784407081    -0.026116829960653     0.026116829959374
    -0.026116830097036     0.006773784407067     0.026116830027572
     0.026116830098301     0.026116830030117     0.006773784407081
65 17
    -3.301375485838183    -2.318550262002815     2.318550261889221
    -2.318550274110317    -3.301375485839468     2.318550267943614
     2.318550274222627     2.318550268169518    -3.301375485838183
65 18
     0.037495352360998     0.031783521178482    -0.042777224851924