128  
1    

1    
  0.0000000000002615   0.0070710678119060   0.0070710678118249
  -0.0017137165   -0.0949404772   -0.0949404757
   0.0013873604    0.0025169312    0.0025169263
   0.0000054188    0.0002325023    0.0002325870
  -0.0013913354    0.0024682982    0.0024683128
   0.0006049029   -0.0024189790    0.0005729689
  -0.0001263236    0.0002170642    0.0001392962
   0.0001276234    0.0001414218    0.0002165987
  -0.0006137283    0.0005653146   -0.0024198926
   0.0002298874   -0.0014011727    0.0000025501
   0.0000008752    0.0003440976    0.0003435622
  -0.0002290239    0.0000038362   -0.0014023324
  -0.0000000695    0.0003481532    0.0003492614
   0.0019156568   -0.0038134735    0.0018785804
  -0.0019300766    0.0018866806   -0.0038043494
   0.0000753885    0.0000835069    0.0002738152
  -0.0000745404    0.0002737246    0.0000830696
   0.0006049314    0.0005729535   -0.0024190022
  -0.0001263732    0.0001393350    0.0002171308
   0.0001276105    0.0002164811    0.0001413789
  -0.0006137027   -0.0024198867    0.0005653066
   0.0002949402   -0.0000945136   -0.0000945160
   0.0000006825    0.0000777734    0.0000778175
  -0.0002951168   -0.0000949883   -0.0000950671
   0.0000012617    0.0001665126    0.0001665021
   0.0003120276    0.0000327563   -0.0001540472
  -0.0003112666   -0.0001551285    0.0000317128
  -0.0000034662    0.0000723775    0.0001047742
   0.0000048874    0.0001054367    0.0000717901
  -0.0000048012   -0.0000422956   -0.0000379179
   0.0000006456    0.0000626259    0.0001668200
   0.0000007664    0.0000764684    0.0000760273
   0.0000017865    0.0001674176    0.0000624553
   0.0002299630    0.0000025196   -0.0014012255
   0.0000010474    0.0003435638    0.0003440494
  -0.0002289892   -0.0014023461    0.0000038107
  -0.0000000834    0.0003492414    0.0003481162
   0.0003120262   -0.0001540056    0.0000326702
  -0.0003112882    0.0000318139   -0.0001551974
  -0.0000034452    0.0001048115    0.0000723827
   0.0000048961    0.0000717613    0.0001053880
  -0.0000020453   -0.0002262183   -0.0002263192
   0.0000126224    0.0000804138    0.0000803552
   0.0000004613    0.0000832401    0.0000831669
  -0.0000119126    0.0000800534    0.0000800160
   0.0003703512   -0.0001022364   -0.0000199540
  -0.0000077576    0.0000843497    0.0000929879
   0.0000085332    0.0000926533    0.0000843179
  -0.0003688606   -0.0000218772   -0.0001023148
   0.0019156216    0.0018785917   -0.0038134609
  -0.0019301023   -0.0038043490    0.0018867051
   0.0000753317    0.0002738595    0.0000835100
  -0.0000746218    0.0000831103    0.0002737077
  -0.0000048642   -0.0000378885   -0.0000422494
   0.0000005968    0.0001668336    0.0000626473
   0.0000006474    0.0000760578    0.0000764926
   0.0000017025    0.0000624789    0.0001674492
   0.0003702339   -0.0000199381   -0.0001021597
  -0.0000078385    0.0000930282    0.0000843775
   0.0000084288    0.0000843902    0.0000926928
  -0.0003689326   -0.0001022557   -0.0000218046
   0.0001863148   -0.0000953993   -0.0000954027
   0.0000005332    0.0001676156    0.0001676181
  -0.0001847153   -0.0000963675   -0.0000963454
   0.0000009982    0.0000749830    0.0000750295
   0.0335331154    0.0402861675    0.0402861657
  -0.0006545391    0.0002311349    0.0002311528
   0.0006475448    0.0002229655    0.0002229889
  -0.0320506543    0.0391889541    0.0391889523
  -0.0002398234    0.0012784849   -0.0001934598
  -0.0000005120   -0.0002327308   -0.0002323445
   0.0002389865   -0.0001959362    0.0012784231
  -0.0000060822   -0.0005619833   -0.0005732563
   0.0004204367    0.0019309321    0.0004661795
  -0.0004228527    0.0004667786    0.0019284440
  -0.0000832790   -0.0001350012   -0.0002859962
   0.0000837907   -0.0002846488   -0.0001341157
   0.0001245171    0.0068675582    0.0070343163
  -0.0000726205   -0.0002475451   -0.0004948065
   0.0000013413   -0.0000517123   -0.0000504860
   0.0000766710   -0.0004910371   -0.0002417566
  -0.0002397799   -0.0001934532    0.0012784854
  -0.0000004883   -0.0002323806   -0.0002327145
   0.0002391753    0.0012784016   -0.0001959655
  -0.0000060312   -0.0005732458   -0.0005620368
  -0.0003686542    0.0001359541    0.0001359210
   0.0003701579    0.0001375582    0.0001375540
  -0.0000178314   -0.0001282739   -0.0001282696
   0.0000189590   -0.0001281488   -0.0001281620
   0.0000023990    0.0000446328    0.0000450548
  -0.0000294918   -0.0000466723   -0.0001155963
   0.0000005989   -0.0000956998   -0.0000952120
   0.0000304922   -0.0001160589   -0.0000462558
  -0.0005300706    0.0002029914   -0.0000370652
  -0.0000117335   -0.0000281806   -0.0000980893
   0.0000129109   -0.0000983662   -0.0000278472
   0.0005303740   -0.0000377348    0.0002067370
   0.0004202709    0.0004660906    0.0019310278
  -0.0004231222    0.0019283580    0.0004669559
  -0.0000833380   -0.0002859671   -0.0001349358
   0.0000836617   -0.0001341391   -0.0002845077
   0.0000022621    0.0000451369    0.0000446090
  -0.0000295988   -0.0001155863   -0.0000466916
   0.0000004145   -0.0000952116   -0.0000956355
   0.0000303467   -0.0000461601   -0.0001160111
  -0.0003003166    0.0000805056    0.0000805659
  -0.0000143418   -0.0000803959   -0.0000803653
   0.0000159014   -0.0000802309   -0.0000802259
   0.0003014633    0.0000812760    0.0000813260
  -0.0002147087    0.0001642096    0.0000154936
   0.0000008493   -0.0000858483   -0.0000857312
   0.0002162684    0.0000159084    0.0001647765
   0.0000002273   -0.0000862122   -0.0000864733
   0.0001244860    0.0070343266    0.0068675587
  -0.0000726239   -0.0004948129   -0.0002475276
   0.0000014464   -0.0000505405   -0.0000516938
   0.0000767083   -0.0002417536   -0.0004909974
  -0.0005301433   -0.0000370388    0.0002030208
  -0.0000117791   -0.0000979718   -0.0000282578
   0.0000128876   -0.0000277187   -0.0000984468
   0.0005303623    0.0002067616   -0.0000376946
  -0.0002147291    0.0000154882    0.0001642321
   0.0000010691   -0.0000857888   -0.0000858459
   0.0002163515    0.0001647421    0.0000158821
   0.0000002604   -0.0000865104   -0.0000862009
  -0.0004476284    0.0000369317    0.0000369227
   0.0004512722    0.0000378667    0.0000378734
  -0.0000096003   -0.0000764698   -0.0000764672
   0.0000104290   -0.0000761929   -0.0000761750
