phonopy:
  version: "2.19.1"
  frequency_unit_conversion_factor: 15.633304
  symmetry_tolerance: 1.00000e-05

space_group:
  type: "Fd-3m"
  number: 227
  Hall_symbol: "F 4d 2 3 -1d"

supercell_matrix:
- [   4,   0,   0 ]
- [   0,   4,   0 ]
- [   0,   0,   4 ]

primitive_cell:
  lattice:
  - [     0.000000000100000,     2.704416287198000,     2.704416287167000 ] # a
  - [     2.704416294294000,     0.000000000083000,     2.704416287184000 ] # b
  - [     2.704416294257000,     2.704416287179000,     0.000000000120000 ] # c
  points:
  - symbol: Si # 1
    coordinates: [  0.000000000008000,  0.000000000005000,  0.000000000019000 ]
    mass: 28.085000
  - symbol: Si # 2
    coordinates: [  0.249999999992000,  0.249999999994999,  0.249999999981000 ]
    mass: 28.085000
  reciprocal_lattice: # without 2pi
  - [    -0.184882778988644,     0.184882779464316,     0.184882779469033 ] # a*
  - [     0.184882778979278,    -0.184882779471357,     0.184882779466640 ] # b*
  - [     0.184882778984269,     0.184882779467050,    -0.184882779476006 ] # c*

unit_cell:
  lattice:
  - [     0.000000000100000,     2.704416287198000,     2.704416287167000 ] # a
  - [     2.704416294294000,     0.000000000083000,     2.704416287184000 ] # b
  - [     2.704416294257000,     2.704416287179000,     0.000000000120000 ] # c
  points:
  - symbol: Si # 1
    coordinates: [  0.000000000008000,  0.000000000005000,  0.000000000019000 ]
    mass: 28.085000
    reduced_to: 1
  - symbol: Si # 2
    coordinates: [  0.249999999992000,  0.249999999994999,  0.249999999981000 ]
    mass: 28.085000
    reduced_to: 2

supercell:
  lattice:
  - [     0.000000000400000,    10.817665148792001,    10.817665148668000 ] # a
  - [    10.817665177176000,     0.000000000332000,    10.817665148735999 ] # b
  - [    10.817665177027999,    10.817665148715999,     0.000000000480000 ] # c
  points:
  - symbol: Si # 1
    coordinates: [  0.000000000002000,  0.000000000001250,  0.000000000004750 ]
    mass: 28.085000
    reduced_to: 1
  - symbol: Si # 2
    coordinates: [  0.250000000002000,  0.000000000001250,  0.000000000004750 ]
    mass: 28.085000
    reduced_to: 1
  - symbol: Si # 3
    coordinates: [  0.500000000002000,  0.000000000001250,  0.000000000004750 ]
    mass: 28.085000
    reduced_to: 1
  - symbol: Si # 4
    coordinates: [  0.750000000002000,  0.000000000001250,  0.000000000004750 ]
    mass: 28.085000
    reduced_to: 1
  - symbol: Si # 5
    coordinates: [  0.000000000002000,  0.250000000001250,  0.000000000004750 ]
    mass: 28.085000
    reduced_to: 1
  - symbol: Si # 6
    coordinates: [  0.250000000002000,  0.250000000001250,  0.000000000004750 ]
    mass: 28.085000
    reduced_to: 1
  - symbol: Si # 7
    coordinates: [  0.500000000002000,  0.250000000001250,  0.000000000004750 ]
    mass: 28.085000
    reduced_to: 1
  - symbol: Si # 8
    coordinates: [  0.750000000002000,  0.250000000001250,  0.000000000004750 ]
    mass: 28.085000
    reduced_to: 1
  - symbol: Si # 9
    coordinates: [  0.000000000002000,  0.500000000001250,  0.000000000004750 ]
    mass: 28.085000
    reduced_to: 1
  - symbol: Si # 10
    coordinates: [  0.250000000002000,  0.500000000001250,  0.000000000004750 ]
    mass: 28.085000
    reduced_to: 1
  - symbol: Si # 11
    coordinates: [  0.500000000002000,  0.500000000001250,  0.000000000004750 ]
    mass: 28.085000
    reduced_to: 1
  - symbol: Si # 12
    coordinates: [  0.750000000002000,  0.500000000001250,  0.000000000004750 ]
    mass: 28.085000
    reduced_to: 1
  - symbol: Si # 13
    coordinates: [  0.000000000002000,  0.750000000001250,  0.000000000004750 ]
    mass: 28.085000
    reduced_to: 1
  - symbol: Si # 14
    coordinates: [  0.250000000002000,  0.750000000001250,  0.000000000004750 ]
    mass: 28.085000
    reduced_to: 1
  - symbol: Si # 15
    coordinates: [  0.500000000002000,  0.750000000001250,  0.000000000004750 ]
    mass: 28.085000
    reduced_to: 1
  - symbol: Si # 16
    coordinates: [  0.750000000002000,  0.750000000001250,  0.000000000004750 ]
    mass: 28.085000
    reduced_to: 1
  - symbol: Si # 17
    coordinates: [  0.000000000002000,  0.000000000001250,  0.250000000004750 ]
    mass: 28.085000
    reduced_to: 1
  - symbol: Si # 18
    coordinates: [  0.250000000002000,  0.000000000001250,  0.250000000004750 ]
    mass: 28.085000
    reduced_to: 1
  - symbol: Si # 19
    coordinates: [  0.500000000002000,  0.000000000001250,  0.250000000004750 ]
    mass: 28.085000
    reduced_to: 1
  - symbol: Si # 20
    coordinates: [  0.750000000002000,  0.000000000001250,  0.250000000004750 ]
    mass: 28.085000
    reduced_to: 1
  - symbol: Si # 21
    coordinates: [  0.000000000002000,  0.250000000001250,  0.250000000004750 ]
    mass: 28.085000
    reduced_to: 1
  - symbol: Si # 22
    coordinates: [  0.250000000002000,  0.250000000001250,  0.250000000004750 ]
    mass: 28.085000
    reduced_to: 1
  - symbol: Si # 23
    coordinates: [  0.500000000002000,  0.250000000001250,  0.250000000004750 ]
    mass: 28.085000
    reduced_to: 1
  - symbol: Si # 24
    coordinates: [  0.750000000002000,  0.250000000001250,  0.250000000004750 ]
    mass: 28.085000
    reduced_to: 1
  - symbol: Si # 25
    coordinates: [  0.000000000002000,  0.500000000001250,  0.250000000004750 ]
    mass: 28.085000
    reduced_to: 1
  - symbol: Si # 26
    coordinates: [  0.250000000002000,  0.500000000001250,  0.250000000004750 ]
    mass: 28.085000
    reduced_to: 1
  - symbol: Si # 27
    coordinates: [  0.500000000002000,  0.500000000001250,  0.250000000004750 ]
    mass: 28.085000
    reduced_to: 1
  - symbol: Si # 28
    coordinates: [  0.750000000002000,  0.500000000001250,  0.250000000004750 ]
    mass: 28.085000
    reduced_to: 1
  - symbol: Si # 29
    coordinates: [  0.000000000002000,  0.750000000001250,  0.250000000004750 ]
    mass: 28.085000
    reduced_to: 1
  - symbol: Si # 30
    coordinates: [  0.250000000002000,  0.750000000001250,  0.250000000004750 ]
    mass: 28.085000
    reduced_to: 1
  - symbol: Si # 31
    coordinates: [  0.500000000002000,  0.750000000001250,  0.250000000004750 ]
    mass: 28.085000
    reduced_to: 1
  - symbol: Si # 32
    coordinates: [  0.750000000002000,  0.750000000001250,  0.250000000004750 ]
    mass: 28.085000
    reduced_to: 1
  - symbol: Si # 33
    coordinates: [  0.000000000002000,  0.000000000001250,  0.500000000004750 ]
    mass: 28.085000
    reduced_to: 1
  - symbol: Si # 34
    coordinates: [  0.250000000002000,  0.000000000001250,  0.500000000004750 ]
    mass: 28.085000
    reduced_to: 1
  - symbol: Si # 35
    coordinates: [  0.500000000002000,  0.000000000001250,  0.500000000004750 ]
    mass: 28.085000
    reduced_to: 1
  - symbol: Si # 36
    coordinates: [  0.750000000002000,  0.000000000001250,  0.500000000004750 ]
    mass: 28.085000
    reduced_to: 1
  - symbol: Si # 37
    coordinates: [  0.000000000002000,  0.250000000001250,  0.500000000004750 ]
    mass: 28.085000
    reduced_to: 1
  - symbol: Si # 38
    coordinates: [  0.250000000002000,  0.250000000001250,  0.500000000004750 ]
    mass: 28.085000
    reduced_to: 1
  - symbol: Si # 39
    coordinates: [  0.500000000002000,  0.250000000001250,  0.500000000004750 ]
    mass: 28.085000
    reduced_to: 1
  - symbol: Si # 40
    coordinates: [  0.750000000002000,  0.250000000001250,  0.500000000004750 ]
    mass: 28.085000
    reduced_to: 1
  - symbol: Si # 41
    coordinates: [  0.000000000002000,  0.500000000001250,  0.500000000004750 ]
    mass: 28.085000
    reduced_to: 1
  - symbol: Si # 42
    coordinates: [  0.250000000002000,  0.500000000001250,  0.500000000004750 ]
    mass: 28.085000
    reduced_to: 1
  - symbol: Si # 43
    coordinates: [  0.500000000002000,  0.500000000001250,  0.500000000004750 ]
    mass: 28.085000
    reduced_to: 1
  - symbol: Si # 44
    coordinates: [  0.750000000002000,  0.500000000001250,  0.500000000004750 ]
    mass: 28.085000
    reduced_to: 1
  - symbol: Si # 45
    coordinates: [  0.000000000002000,  0.750000000001250,  0.500000000004750 ]
    mass: 28.085000
    reduced_to: 1
  - symbol: Si # 46
    coordinates: [  0.250000000002000,  0.750000000001250,  0.500000000004750 ]
    mass: 28.085000
    reduced_to: 1
  - symbol: Si # 47
    coordinates: [  0.500000000002000,  0.750000000001250,  0.500000000004750 ]
    mass: 28.085000
    reduced_to: 1
  - symbol: Si # 48
    coordinates: [  0.750000000002000,  0.750000000001250,  0.500000000004750 ]
    mass: 28.085000
    reduced_to: 1
  - symbol: Si # 49
    coordinates: [  0.000000000002000,  0.000000000001250,  0.750000000004750 ]
    mass: 28.085000
    reduced_to: 1
  - symbol: Si # 50
    coordinates: [  0.250000000002000,  0.000000000001250,  0.750000000004750 ]
    mass: 28.085000
    reduced_to: 1
  - symbol: Si # 51
    coordinates: [  0.500000000002000,  0.000000000001250,  0.750000000004750 ]
    mass: 28.085000
    reduced_to: 1
  - symbol: Si # 52
    coordinates: [  0.750000000002000,  0.000000000001250,  0.750000000004750 ]
    mass: 28.085000
    reduced_to: 1
  - symbol: Si # 53
    coordinates: [  0.000000000002000,  0.250000000001250,  0.750000000004750 ]
    mass: 28.085000
    reduced_to: 1
  - symbol: Si # 54
    coordinates: [  0.250000000002000,  0.250000000001250,  0.750000000004750 ]
    mass: 28.085000
    reduced_to: 1
  - symbol: Si # 55
    coordinates: [  0.500000000002000,  0.250000000001250,  0.750000000004750 ]
    mass: 28.085000
    reduced_to: 1
  - symbol: Si # 56
    coordinates: [  0.750000000002000,  0.250000000001250,  0.750000000004750 ]
    mass: 28.085000
    reduced_to: 1
  - symbol: Si # 57
    coordinates: [  0.000000000002000,  0.500000000001250,  0.750000000004750 ]
    mass: 28.085000
    reduced_to: 1
  - symbol: Si # 58
    coordinates: [  0.250000000002000,  0.500000000001250,  0.750000000004750 ]
    mass: 28.085000
    reduced_to: 1
  - symbol: Si # 59
    coordinates: [  0.500000000002000,  0.500000000001250,  0.750000000004750 ]
    mass: 28.085000
    reduced_to: 1
  - symbol: Si # 60
    coordinates: [  0.750000000002000,  0.500000000001250,  0.750000000004750 ]
    mass: 28.085000
    reduced_to: 1
  - symbol: Si # 61
    coordinates: [  0.000000000002000,  0.750000000001250,  0.750000000004750 ]
    mass: 28.085000
    reduced_to: 1
  - symbol: Si # 62
    coordinates: [  0.250000000002000,  0.750000000001250,  0.750000000004750 ]
    mass: 28.085000
    reduced_to: 1
  - symbol: Si # 63
    coordinates: [  0.500000000002000,  0.750000000001250,  0.750000000004750 ]
    mass: 28.085000
    reduced_to: 1
  - symbol: Si # 64
    coordinates: [  0.750000000002000,  0.750000000001250,  0.750000000004750 ]
    mass: 28.085000
    reduced_to: 1
  - symbol: Si # 65
    coordinates: [  0.062499999998000,  0.062499999998750,  0.062499999995250 ]
    mass: 28.085000
    reduced_to: 65
  - symbol: Si # 66
    coordinates: [  0.312499999998000,  0.062499999998750,  0.062499999995250 ]
    mass: 28.085000
    reduced_to: 65
  - symbol: Si # 67
    coordinates: [  0.562499999998000,  0.062499999998750,  0.062499999995250 ]
    mass: 28.085000
    reduced_to: 65
  - symbol: Si # 68
    coordinates: [  0.812499999998000,  0.062499999998750,  0.062499999995250 ]
    mass: 28.085000
    reduced_to: 65
  - symbol: Si # 69
    coordinates: [  0.062499999998000,  0.312499999998750,  0.062499999995250 ]
    mass: 28.085000
    reduced_to: 65
  - symbol: Si # 70
    coordinates: [  0.312499999998000,  0.312499999998750,  0.062499999995250 ]
    mass: 28.085000
    reduced_to: 65
  - symbol: Si # 71
    coordinates: [  0.562499999998000,  0.312499999998750,  0.062499999995250 ]
    mass: 28.085000
    reduced_to: 65
  - symbol: Si # 72
    coordinates: [  0.812499999998000,  0.312499999998750,  0.062499999995250 ]
    mass: 28.085000
    reduced_to: 65
  - symbol: Si # 73
    coordinates: [  0.062499999998000,  0.562499999998750,  0.062499999995250 ]
    mass: 28.085000
    reduced_to: 65
  - symbol: Si # 74
    coordinates: [  0.312499999998000,  0.562499999998750,  0.062499999995250 ]
    mass: 28.085000
    reduced_to: 65
  - symbol: Si # 75
    coordinates: [  0.562499999998000,  0.562499999998750,  0.062499999995250 ]
    mass: 28.085000
    reduced_to: 65
  - symbol: Si # 76
    coordinates: [  0.812499999998000,  0.562499999998750,  0.062499999995250 ]
    mass: 28.085000
    reduced_to: 65
  - symbol: Si # 77
    coordinates: [  0.062499999998000,  0.812499999998750,  0.062499999995250 ]
    mass: 28.085000
    reduced_to: 65
  - symbol: Si # 78
    coordinates: [  0.312499999998000,  0.812499999998750,  0.062499999995250 ]
    mass: 28.085000
    reduced_to: 65
  - symbol: Si # 79
    coordinates: [  0.562499999998000,  0.812499999998750,  0.062499999995250 ]
    mass: 28.085000
    reduced_to: 65
  - symbol: Si # 80
    coordinates: [  0.812499999998000,  0.812499999998750,  0.062499999995250 ]
    mass: 28.085000
    reduced_to: 65
  - symbol: Si # 81
    coordinates: [  0.062499999998000,  0.062499999998750,  0.312499999995250 ]
    mass: 28.085000
    reduced_to: 65
  - symbol: Si # 82
    coordinates: [  0.312499999998000,  0.062499999998750,  0.312499999995250 ]
    mass: 28.085000
    reduced_to: 65
  - symbol: Si # 83
    coordinates: [  0.562499999998000,  0.062499999998750,  0.312499999995250 ]
    mass: 28.085000
    reduced_to: 65
  - symbol: Si # 84
    coordinates: [  0.812499999998000,  0.062499999998750,  0.312499999995250 ]
    mass: 28.085000
    reduced_to: 65
  - symbol: Si # 85
    coordinates: [  0.062499999998000,  0.312499999998750,  0.312499999995250 ]
    mass: 28.085000
    reduced_to: 65
  - symbol: Si # 86
    coordinates: [  0.312499999998000,  0.312499999998750,  0.312499999995250 ]
    mass: 28.085000
    reduced_to: 65
  - symbol: Si # 87
    coordinates: [  0.562499999998000,  0.312499999998750,  0.312499999995250 ]
    mass: 28.085000
    reduced_to: 65
  - symbol: Si # 88
    coordinates: [  0.812499999998000,  0.312499999998750,  0.312499999995250 ]
    mass: 28.085000
    reduced_to: 65
  - symbol: Si # 89
    coordinates: [  0.062499999998000,  0.562499999998750,  0.312499999995250 ]
    mass: 28.085000
    reduced_to: 65
  - symbol: Si # 90
    coordinates: [  0.312499999998000,  0.562499999998750,  0.312499999995250 ]
    mass: 28.085000
    reduced_to: 65
  - symbol: Si # 91
    coordinates: [  0.562499999998000,  0.562499999998750,  0.312499999995250 ]
    mass: 28.085000
    reduced_to: 65
  - symbol: Si # 92
    coordinates: [  0.812499999998000,  0.562499999998750,  0.312499999995250 ]
    mass: 28.085000
    reduced_to: 65
  - symbol: Si # 93
    coordinates: [  0.062499999998000,  0.812499999998750,  0.312499999995250 ]
    mass: 28.085000
    reduced_to: 65
  - symbol: Si # 94
    coordinates: [  0.312499999998000,  0.812499999998750,  0.312499999995250 ]
    mass: 28.085000
    reduced_to: 65
  - symbol: Si # 95
    coordinates: [  0.562499999998000,  0.812499999998750,  0.312499999995250 ]
    mass: 28.085000
    reduced_to: 65
  - symbol: Si # 96
    coordinates: [  0.812499999998000,  0.812499999998750,  0.312499999995250 ]
    mass: 28.085000
    reduced_to: 65
  - symbol: Si # 97
    coordinates: [  0.062499999998000,  0.062499999998750,  0.562499999995250 ]
    mass: 28.085000
    reduced_to: 65
  - symbol: Si # 98
    coordinates: [  0.312499999998000,  0.062499999998750,  0.562499999995250 ]
    mass: 28.085000
    reduced_to: 65
  - symbol: Si # 99
    coordinates: [  0.562499999998000,  0.062499999998750,  0.562499999995250 ]
    mass: 28.085000
    reduced_to: 65
  - symbol: Si # 100
    coordinates: [  0.812499999998000,  0.062499999998750,  0.562499999995250 ]
    mass: 28.085000
    reduced_to: 65
  - symbol: Si # 101
    coordinates: [  0.062499999998000,  0.312499999998750,  0.562499999995250 ]
    mass: 28.085000
    reduced_to: 65
  - symbol: Si # 102
    coordinates: [  0.312499999998000,  0.312499999998750,  0.562499999995250 ]
    mass: 28.085000
    reduced_to: 65
  - symbol: Si # 103
    coordinates: [  0.562499999998000,  0.312499999998750,  0.562499999995250 ]
    mass: 28.085000
    reduced_to: 65
  - symbol: Si # 104
    coordinates: [  0.812499999998000,  0.312499999998750,  0.562499999995250 ]
    mass: 28.085000
    reduced_to: 65
  - symbol: Si # 105
    coordinates: [  0.062499999998000,  0.562499999998750,  0.562499999995250 ]
    mass: 28.085000
    reduced_to: 65
  - symbol: Si # 106
    coordinates: [  0.312499999998000,  0.562499999998750,  0.562499999995250 ]
    mass: 28.085000
    reduced_to: 65
  - symbol: Si # 107
    coordinates: [  0.562499999998000,  0.562499999998750,  0.562499999995250 ]
    mass: 28.085000
    reduced_to: 65
  - symbol: Si # 108
    coordinates: [  0.812499999998000,  0.562499999998750,  0.562499999995250 ]
    mass: 28.085000
    reduced_to: 65
  - symbol: Si # 109
    coordinates: [  0.062499999998000,  0.812499999998750,  0.562499999995250 ]
    mass: 28.085000
    reduced_to: 65
  - symbol: Si # 110
    coordinates: [  0.312499999998000,  0.812499999998750,  0.562499999995250 ]
    mass: 28.085000
    reduced_to: 65
  - symbol: Si # 111
    coordinates: [  0.562499999998000,  0.812499999998750,  0.562499999995250 ]
    mass: 28.085000
    reduced_to: 65
  - symbol: Si # 112
    coordinates: [  0.812499999998000,  0.812499999998750,  0.562499999995250 ]
    mass: 28.085000
    reduced_to: 65
  - symbol: Si # 113
    coordinates: [  0.062499999998000,  0.062499999998750,  0.812499999995250 ]
    mass: 28.085000
    reduced_to: 65
  - symbol: Si # 114
    coordinates: [  0.312499999998000,  0.062499999998750,  0.812499999995250 ]
    mass: 28.085000
    reduced_to: 65
  - symbol: Si # 115
    coordinates: [  0.562499999998000,  0.062499999998750,  0.812499999995250 ]
    mass: 28.085000
    reduced_to: 65
  - symbol: Si # 116
    coordinates: [  0.812499999998000,  0.062499999998750,  0.812499999995250 ]
    mass: 28.085000
    reduced_to: 65
  - symbol: Si # 117
    coordinates: [  0.062499999998000,  0.312499999998750,  0.812499999995250 ]
    mass: 28.085000
    reduced_to: 65
  - symbol: Si # 118
    coordinates: [  0.312499999998000,  0.312499999998750,  0.812499999995250 ]
    mass: 28.085000
    reduced_to: 65
  - symbol: Si # 119
    coordinates: [  0.562499999998000,  0.312499999998750,  0.812499999995250 ]
    mass: 28.085000
    reduced_to: 65
  - symbol: Si # 120
    coordinates: [  0.812499999998000,  0.312499999998750,  0.812499999995250 ]
    mass: 28.085000
    reduced_to: 65
  - symbol: Si # 121
    coordinates: [  0.062499999998000,  0.562499999998750,  0.812499999995250 ]
    mass: 28.085000
    reduced_to: 65
  - symbol: Si # 122
    coordinates: [  0.312499999998000,  0.562499999998750,  0.812499999995250 ]
    mass: 28.085000
    reduced_to: 65
  - symbol: Si # 123
    coordinates: [  0.562499999998000,  0.562499999998750,  0.812499999995250 ]
    mass: 28.085000
    reduced_to: 65
  - symbol: Si # 124
    coordinates: [  0.812499999998000,  0.562499999998750,  0.812499999995250 ]
    mass: 28.085000
    reduced_to: 65
  - symbol: Si # 125
    coordinates: [  0.062499999998000,  0.812499999998750,  0.812499999995250 ]
    mass: 28.085000
    reduced_to: 65
  - symbol: Si # 126
    coordinates: [  0.312499999998000,  0.812499999998750,  0.812499999995250 ]
    mass: 28.085000
    reduced_to: 65
  - symbol: Si # 127
    coordinates: [  0.562499999998000,  0.812499999998750,  0.812499999995250 ]
    mass: 28.085000
    reduced_to: 65
  - symbol: Si # 128
    coordinates: [  0.812499999998000,  0.812499999998750,  0.812499999995250 ]
    mass: 28.085000
    reduced_to: 65

displacements:
- atom:    1
  displacement:
    [   0.0000000000002615,  0.0070710678119060,  0.0070710678118249 ]
  forces:
  - [  -0.0017137164756506, -0.0949404771627360, -0.0949404757229284 ]
  - [   0.0013873603827657,  0.0025169312218497,  0.0025169263050109 ]
  - [   0.0000054187791855,  0.0002325022509802,  0.0002325870412435 ]
  - [  -0.0013913354224739,  0.0024682982419774,  0.0024683128183533 ]
  - [   0.0006049029387195, -0.0024189789755473,  0.0005729688782484 ]
  - [  -0.0001263236089036,  0.0002170642165121,  0.0001392961718651 ]
  - [   0.0001276233995995,  0.0001414218285904,  0.0002165987008334 ]
  - [  -0.0006137283446429,  0.0005653145928316, -0.0024198925859340 ]
  - [   0.0002298874263832, -0.0014011726922723,  0.0000025500798864 ]
  - [   0.0000008752122548,  0.0003440976354134,  0.0003435622030862 ]
  - [  -0.0002290238703209,  0.0000038361756667, -0.0014023323714769 ]
  - [  -0.0000000694933708,  0.0003481532415527,  0.0003492613964719 ]
  - [   0.0019156568250138, -0.0038134735085416,  0.0018785803655970 ]
  - [  -0.0019300765900610,  0.0018866806307249, -0.0038043494131671 ]
  - [   0.0000753884871451,  0.0000835069189510,  0.0002738151634954 ]
  - [  -0.0000745403749731,  0.0002737245837345,  0.0000830695622024 ]
  - [   0.0006049314207216,  0.0005729535148570, -0.0024190022001506 ]
  - [  -0.0001263731667554,  0.0001393350280404,  0.0002171307995528 ]
  - [   0.0001276105257657,  0.0002164811286681,  0.0001413788593632 ]
  - [  -0.0006137027369078, -0.0024198867191475,  0.0005653065964267 ]
  - [   0.0002949401606260, -0.0000945135826656, -0.0000945160045855 ]
  - [   0.0000006824608658,  0.0000777734297253,  0.0000778175313074 ]
  - [  -0.0002951168214631, -0.0000949883057710, -0.0000950671356088 ]
  - [   0.0000012617137623,  0.0001665125908528,  0.0001665021148350 ]
  - [   0.0003120276215889,  0.0000327562823038, -0.0001540471814651 ]
  - [  -0.0003112665572515, -0.0001551285032924,  0.0000317128090449 ]
  - [  -0.0000034661929002,  0.0000723774732238,  0.0001047741771538 ]
  - [   0.0000048873631651,  0.0001054367041665,  0.0000717901003709 ]
  - [  -0.0000048012393196, -0.0000422955902521, -0.0000379179401930 ]
  - [   0.0000006456173564,  0.0000626258573849,  0.0001668199730110 ]
  - [   0.0000007664438820,  0.0000764684381023,  0.0000760273353757 ]
  - [   0.0000017865288129,  0.0001674176206862,  0.0000624553286389 ]
  - [   0.0002299630017783,  0.0000025195981653, -0.0014012255152726 ]
  - [   0.0000010474154774,  0.0003435638460695,  0.0003440493753122 ]
  - [  -0.0002289892391748, -0.0014023461016946,  0.0000038107477472 ]
  - [  -0.0000000833709549,  0.0003492414119693,  0.0003481162008978 ]
  - [   0.0003120261915990, -0.0001540056404668,  0.0000326701794907 ]
  - [  -0.0003112882038740,  0.0000318138900660, -0.0001551974341601 ]
  - [  -0.0000034451531371,  0.0001048114740508,  0.0000723826739380 ]
  - [   0.0000048960519759,  0.0000717612502128,  0.0001053879745798 ]
  - [  -0.0000020453068299, -0.0002262183453294, -0.0002263191866222 ]
  - [   0.0000126223535567,  0.0000804138178195,  0.0000803551852604 ]
  - [   0.0000004613214471,  0.0000832400651217,  0.0000831668624755 ]
  - [  -0.0000119126172020,  0.0000800534317510,  0.0000800160460555 ]
  - [   0.0003703511823417, -0.0001022364106204, -0.0000199539857525 ]
  - [  -0.0000077575771676,  0.0000843496736539,  0.0000929878531224 ]
  - [   0.0000085332496662,  0.0000926533234969,  0.0000843179168707 ]
  - [  -0.0003688606270460, -0.0000218771910396, -0.0001023147812761 ]
  - [   0.0019156216205017,  0.0018785917121283, -0.0038134608998072 ]
  - [  -0.0019301023242608, -0.0038043489865303,  0.0018867051086459 ]
  - [   0.0000753317196273,  0.0002738595355434,  0.0000835100369306 ]
  - [  -0.0000746217758331,  0.0000831102789348,  0.0002737076533136 ]
  - [  -0.0000048642038714, -0.0000378885083877, -0.0000422494241937 ]
  - [   0.0000005967638044,  0.0001668335760336,  0.0000626472576662 ]
  - [   0.0000006473562613,  0.0000760577692415,  0.0000764926200828 ]
  - [   0.0000017024740037,  0.0000624788662316,  0.0001674492170069 ]
  - [   0.0003702339398484, -0.0000199381209430, -0.0001021597263850 ]
  - [  -0.0000078384872365,  0.0000930282399957,  0.0000843775061725 ]
  - [   0.0000084287843888,  0.0000843902108212,  0.0000926927746589 ]
  - [  -0.0003689326196225, -0.0001022557334869, -0.0000218045714655 ]
  - [   0.0001863147751339, -0.0000953992886255, -0.0000954026728804 ]
  - [   0.0000005332309264,  0.0001676156403385,  0.0001676180559695 ]
  - [  -0.0001847153256925, -0.0000963675346931, -0.0000963454031011 ]
  - [   0.0000009982179168,  0.0000749829994216,  0.0000750294732433 ]
  - [   0.0335331153517623,  0.0402861674701142,  0.0402861657473633 ]
  - [  -0.0006545391045248,  0.0002311349119255,  0.0002311527518617 ]
  - [   0.0006475447813807,  0.0002229654556726,  0.0002229889338097 ]
  - [  -0.0320506543486319,  0.0391889540616629,  0.0391889522877014 ]
  - [  -0.0002398233620012,  0.0012784848955671, -0.0001934598177467 ]
  - [  -0.0000005119656005, -0.0002327308069195, -0.0002323444726153 ]
  - [   0.0002389865488193, -0.0001959361551349,  0.0012784231424477 ]
  - [  -0.0000060822269454, -0.0005619832699601, -0.0005732562570307 ]
  - [   0.0004204367130836,  0.0019309321469873,  0.0004661795455119 ]
  - [  -0.0004228527322011,  0.0004667786229288,  0.0019284440344511 ]
  - [  -0.0000832790093815, -0.0001350011909579, -0.0002859962200146 ]
  - [   0.0000837906687162, -0.0002846488400334, -0.0001341157274649 ]
  - [   0.0001245170691137,  0.0068675582275533,  0.0070343163377376 ]
  - [  -0.0000726204624770, -0.0002475450603298, -0.0004948064532285 ]
  - [   0.0000013413188732, -0.0000517122949009, -0.0000504860108505 ]
  - [   0.0000766709770679, -0.0004910370704434, -0.0002417566488366 ]
  - [  -0.0002397798504018, -0.0001934531719204,  0.0012784854024608 ]
  - [  -0.0000004882509605, -0.0002323805922272, -0.0002327145387271 ]
  - [   0.0002391752552467,  0.0012784015515942, -0.0001959655162791 ]
  - [  -0.0000060312286774, -0.0005732458416139, -0.0005620367829581 ]
  - [  -0.0003686542467405,  0.0001359541244229,  0.0001359209691639 ]
  - [   0.0003701579095555,  0.0001375582396320,  0.0001375539661870 ]
  - [  -0.0000178313697716, -0.0001282739499470, -0.0001282696163631 ]
  - [   0.0000189589839986, -0.0001281487530525, -0.0001281620010029 ]
  - [   0.0000023989893610,  0.0000446327553708,  0.0000450548205688 ]
  - [  -0.0000294917516983, -0.0000466723212229, -0.0001155963281568 ]
  - [   0.0000005988975242, -0.0000956998097079, -0.0000952119661619 ]
  - [   0.0000304921709613, -0.0001160589105069, -0.0000462557520001 ]
  - [  -0.0005300705780465,  0.0002029913763157, -0.0000370651958877 ]
  - [  -0.0000117335075540, -0.0000281806060778, -0.0000980893059708 ]
  - [   0.0000129109370860, -0.0000983661823385, -0.0000278472259567 ]
  - [   0.0005303740365652, -0.0000377348308469,  0.0002067369642846 ]
  - [   0.0004202708829899,  0.0004660906347209,  0.0019310278282991 ]
  - [  -0.0004231221523428,  0.0019283579807596,  0.0004669558516051 ]
  - [  -0.0000833380276963, -0.0002859670665108, -0.0001349358137063 ]
  - [   0.0000836616836575, -0.0001341390931564, -0.0002845076990118 ]
  - [   0.0000022621381191,  0.0000451369323488,  0.0000446089875388 ]
  - [  -0.0000295987925987, -0.0001155862861670, -0.0000466916212381 ]
  - [   0.0000004144793718, -0.0000952116048848, -0.0000956354951149 ]
  - [   0.0000303467089220, -0.0000461600982445, -0.0001160111271427 ]
  - [  -0.0003003165550755,  0.0000805056343692,  0.0000805659315462 ]
  - [  -0.0000143417877306, -0.0000803958769319, -0.0000803653051461 ]
  - [   0.0000159013805503, -0.0000802308769373, -0.0000802258555108 ]
  - [   0.0003014633339377,  0.0000812759557811,  0.0000813259971941 ]
  - [  -0.0002147087233199,  0.0001642095963992,  0.0000154936428167 ]
  - [   0.0000008492815598, -0.0000858483369985, -0.0000857312357575 ]
  - [   0.0002162683541395,  0.0000159084080322,  0.0001647765413510 ]
  - [   0.0000002273223674, -0.0000862121682133, -0.0000864732615258 ]
  - [   0.0001244859920783,  0.0070343266488053,  0.0068675586814875 ]
  - [  -0.0000726239131718, -0.0004948128893668, -0.0002475276386756 ]
  - [   0.0000014464324053, -0.0000505404902055, -0.0000516938425372 ]
  - [   0.0000767083359271, -0.0002417536494610, -0.0004909973566303 ]
  - [  -0.0005301433475751, -0.0000370387545052,  0.0002030207515273 ]
  - [  -0.0000117791171544, -0.0000979718177376, -0.0000282577880169 ]
  - [   0.0000128876257527, -0.0000277186952611, -0.0000984467810594 ]
  - [   0.0005303622799607,  0.0002067616190708, -0.0000376946246822 ]
  - [  -0.0002147290682149,  0.0000154882239433,  0.0001642321218582 ]
  - [   0.0000010690797708, -0.0000857887959932, -0.0000858459395747 ]
  - [   0.0002163515440071,  0.0001647420761261,  0.0000158821389236 ]
  - [   0.0000002603750361, -0.0000865103600889, -0.0000862009176826 ]
  - [  -0.0004476284247340,  0.0000369316952717,  0.0000369226931813 ]
  - [   0.0004512721965536,  0.0000378666770336,  0.0000378733949126 ]
  - [  -0.0000096003311336, -0.0000764697804170, -0.0000764672138974 ]
  - [   0.0000104289691681, -0.0000761929390062, -0.0000761749860173 ]
