nqpoint: 500    
npath: 10     
segment_nqpoint:
- 50
- 50
- 50
- 50
- 50
- 50
- 50
- 50
- 50
- 50
labels:
- [ 'G', 'X' ]
- [ 'X', 'W' ]
- [ 'W', 'K' ]
- [ 'K', 'G' ]
- [ 'G', 'L' ]
- [ 'L', 'U' ]
- [ 'U', 'W' ]
- [ 'W', 'L' ]
- [ 'L', 'K|U' ]
- [ 'K|U', 'X' ]
reciprocal_lattice:
- [  -0.18068189,   0.18068189,   0.18068189 ] # a*
- [   0.18068189,  -0.18068189,   0.18068189 ] # b*
- [   0.18068189,   0.18068189,  -0.18068189 ] # c*
natom: 2      
lattice:
- [     0.000000000000000,     2.767294438168200,     2.767294438168200 ] # a
- [     2.767294438168200,     0.000000000000000,     2.767294438168200 ] # b
- [     2.767294438168200,     2.767294438168200,     0.000000000000000 ] # c
points:
- symbol: Si # 1
  coordinates: [  0.000000000000000,  0.000000000000000,  0.000000000000000 ]
  mass: 28.085000
  magnetic_moment: 0.00000000
- symbol: Si # 2
  coordinates: [  0.250000000000000,  0.250000000000000,  0.250000000000000 ]
  mass: 28.085000
  magnetic_moment: 0.00000000

phonon:
- q-position: [    0.0000000,    0.0000000,    0.0000000 ]
  distance:    0.0000000
  band:
  - # 1
    frequency:   -0.0000005978
    eigenvector:
    - # atom 1
      - [ -0.67819334622481,  0.00000000000000 ]
      - [ -0.13417172932293,  0.00000000000000 ]
      - [ -0.14849825651126,  0.00000000000000 ]
    - # atom 2
      - [ -0.67819334622481,  0.00000000000000 ]
      - [ -0.13417172932293,  0.00000000000000 ]
      - [ -0.14849825651126,  0.00000000000000 ]
  - # 2
    frequency:   -0.0000005717
    eigenvector:
    - # atom 1
      - [ -0.17641504794182,  0.00000000000000 ]
      - [  0.15302383473471,  0.00000000000000 ]
      - [  0.66742897514475,  0.00000000000000 ]
    - # atom 2
      - [ -0.17641504794182,  0.00000000000000 ]
      - [  0.15302383473471,  0.00000000000000 ]
      - [  0.66742897514475,  0.00000000000000 ]
  - # 3
    frequency:   -0.0000005258
    eigenvector:
    - # atom 1
      - [ -0.09450669815454,  0.00000000000000 ]
      - [  0.67718657182019,  0.00000000000000 ]
      - [ -0.18024103570038,  0.00000000000000 ]
    - # atom 2
      - [ -0.09450669815454,  0.00000000000000 ]
      - [  0.67718657182019,  0.00000000000000 ]
      - [ -0.18024103570038,  0.00000000000000 ]
  - # 4
    frequency:   14.4049888082
    eigenvector:
    - # atom 1
      - [  0.00000000000000,  0.00000000000000 ]
      - [ -0.28574754466066,  0.00000000000000 ]
      - [ -0.64679853178591,  0.00000000000000 ]
    - # atom 2
      - [  0.00000000000000,  0.00000000000000 ]
      - [  0.28574754466066,  0.00000000000000 ]
      - [  0.64679853178591,  0.00000000000000 ]
  - # 5
    frequency:   14.4049888082
    eigenvector:
    - # atom 1
      - [  0.70710678118655,  0.00000000000000 ]
      - [  0.00000000000000,  0.00000000000000 ]
      - [ -0.00000000000000,  0.00000000000000 ]
    - # atom 2
      - [ -0.70710678118655,  0.00000000000000 ]
      - [ -0.00000000000000,  0.00000000000000 ]
      - [  0.00000000000000,  0.00000000000000 ]
  - # 6
    frequency:   14.4049888082
    eigenvector:
    - # atom 1
      - [ -0.00000000000000,  0.00000000000000 ]
      - [  0.64679853178591,  0.00000000000000 ]
      - [ -0.28574754466066,  0.00000000000000 ]
    - # atom 2
      - [  0.00000000000000,  0.00000000000000 ]
      - [ -0.64679853178591,  0.00000000000000 ]
      - [  0.28574754466066,  0.00000000000000 ]

- q-position: [    0.0102041,    0.0000000,    0.0102041 ]
  distance:    0.0036874
  band:
  - # 1
    frequency:    0.1183454114
    eigenvector:
    - # atom 1
      - [  0.03023638870940,  0.00000000000000 ]
      - [  0.00000000000014,  0.00000000000001 ]
      - [  0.70640875198188,  0.00851092951516 ]
    - # atom 2
      - [  0.03040682840468, -0.01468916184861 ]
      - [  0.00000000000014,  0.00000000000001 ]
      - [  0.70625601123161,  0.00788034959669 ]
  - # 2
    frequency:    0.1183454114
    eigenvector:
    - # atom 1
      - [ -0.70646002066487,  0.00000000000000 ]
      - [  0.00000000000011,  0.00000000000000 ]
      - [  0.03023419441704,  0.00036426657641 ]
    - # atom 2
      - [ -0.70629969421935, -0.00062869404422 ]
      - [  0.00000000000011,  0.00000000000000 ]
      - [  0.03022765713458,  0.01505441575088 ]
  - # 3
    frequency:    0.2818537583
    eigenvector:
    - # atom 1
      - [ -0.00000000000010,  0.00000000000000 ]
      - [ -0.70709548349104, -0.00399715230713 ]
      - [  0.00000000000014, -0.00000000000000 ]
    - # atom 2
      - [ -0.00000000000010, -0.00000000000000 ]
      - [ -0.70709548349104, -0.00399715230713 ]
      - [  0.00000000000014, -0.00000000000000 ]
  - # 4
    frequency:   14.4033311969
    eigenvector:
    - # atom 1
      - [  0.00000000000000,  0.00000000000000 ]
      - [  0.00000000000010, -0.00000000000000 ]
      - [  0.70710602506055,  0.00103408078698 ]
    - # atom 2
      - [ -0.00002150281972,  0.01470366104199 ]
      - [ -0.00000000000010,  0.00000000000000 ]
      - [ -0.70695313354485, -0.00103385719650 ]
  - # 5
    frequency:   14.4033311969
    eigenvector:
    - # atom 1
      - [  0.70710678118655,  0.00000000000000 ]
      - [  0.00000000000000,  0.00000000000000 ]
      - [ -0.00000000000000, -0.00000000000000 ]
    - # atom 2
      - [ -0.70695388950736, -0.00000000000000 ]
      - [ -0.00000000000000,  0.00000000000000 ]
      - [  0.00000000000000,  0.01470367676498 ]
  - # 6
    frequency:   14.4040456840
    eigenvector:
    - # atom 1
      - [ -0.00000000000000,  0.00000000000000 ]
      - [  0.70700695104706,  0.01188154750641 ]
      - [ -0.00000000000010, -0.00000000000001 ]
    - # atom 2
      - [  0.00000000000000, -0.00000000000000 ]
      - [ -0.70700695104706, -0.01188154750641 ]
      - [  0.00000000000010,  0.00000000000001 ]

- q-position: [    0.0204082,    0.0000000,    0.0204082 ]
  distance:    0.0073748
  band:
  - # 1
    frequency:    0.2366855929
    eigenvector:
    - # atom 1
      - [  0.70650426364844, -0.00000000000000 ]
      - [ -0.00000000000002, -0.00000000000000 ]
      - [  0.02913490435538,  0.00169787949546 ]
    - # atom 2
      - [  0.70596319471337, -0.00121212974023 ]
      - [ -0.00000000000002, -0.00000000000000 ]
      - [  0.02910967868751, -0.02769702255276 ]
  - # 2
    frequency:    0.2366855929
    eigenvector:
    - # atom 1
      - [  0.02918433563709,  0.00000000000000 ]
      - [  0.00000000000001, -0.00000000000001 ]
      - [ -0.70530761446926, -0.04110284083974 ]
    - # atom 2
      - [  0.02744902291628,  0.02934364654435 ]
      - [  0.00000000000001, -0.00000000000001 ]
      - [ -0.70469694297322, -0.04228143933946 ]
  - # 3
    frequency:    0.5635636542
    eigenvector:
    - # atom 1
      - [ -0.00000000000002,  0.00000000000000 ]
      - [ -0.70696353077914, -0.01423257349515 ]
      - [ -0.00000000000001, -0.00000000000001 ]
    - # atom 2
      - [ -0.00000000000002,  0.00000000000000 ]
      - [ -0.70696353077914, -0.01423257349515 ]
      - [ -0.00000000000001, -0.00000000000001 ]
  - # 4
    frequency:   14.3983621194
    eigenvector:
    - # atom 1
      - [  0.70710678118655,  0.00000000000000 ]
      - [  0.00000000000000,  0.00000000000000 ]
      - [ -0.00000000000000, -0.00000000000000 ]
    - # atom 2
      - [ -0.70649455193073, -0.00000000000000 ]
      - [ -0.00000000000000,  0.00000000000000 ]
      - [  0.00000000000000,  0.02941849914929 ]
  - # 5
    frequency:   14.3983621194
    eigenvector:
    - # atom 1
      - [  0.00000000000000, -0.00000000000000 ]
      - [ -0.00000000000002,  0.00000000000002 ]
      - [  0.70706116925563,  0.00803137166791 ]
    - # atom 2
      - [ -0.00033413751199,  0.02941660150867 ]
      - [  0.00000000000002, -0.00000000000002 ]
      - [ -0.70644897949166, -0.00802441792227 ]
  - # 6
    frequency:   14.4012141136
    eigenvector:
    - # atom 1
      - [  0.00000000000000,  0.00000000000000 ]
      - [ -0.70709950406798, -0.00320801290872 ]
      - [ -0.00000000000002, -0.00000000000002 ]
    - # atom 2
      - [  0.00000000000000, -0.00000000000000 ]
      - [  0.70709950406798,  0.00320801290872 ]
      - [  0.00000000000002,  0.00000000000002 ]

- q-position: [    0.0306122,    0.0000000,    0.0306122 ]
  distance:    0.0110622
  band:
  - # 1
    frequency:    0.3550147448
    eigenvector:
    - # atom 1
      - [  0.03396377974972, -0.00000000000000 ]
      - [ -0.00000000000001,  0.00000000000000 ]
      - [  0.66358811654524, -0.24186209551118 ]
    - # atom 2
      - [  0.01879431086202, -0.04143805053417 ]
      - [ -0.00000000000001,  0.00000000000000 ]
      - [  0.66229304419417, -0.24351095552186 ]
  - # 2
    frequency:    0.3550147448
    eigenvector:
    - # atom 1
      - [ -0.70629063540805,  0.00000000000000 ]
      - [  0.00000000000000,  0.00000000000000 ]
      - [  0.03191032063147, -0.01163055338685 ]
    - # atom 2
      - [ -0.70563849893370, -0.00199265394590 ]
      - [  0.00000000000000,  0.00000000000000 ]
      - [  0.03184804378694,  0.03249677306742 ]
  - # 3
    frequency:    0.8449859971
    eigenvector:
    - # atom 1
      - [ -0.00000000000000,  0.00000000000000 ]
      - [ -0.70666825845230, -0.02489924689615 ]
      - [ -0.00000000000001,  0.00000000000000 ]
    - # atom 2
      - [ -0.00000000000000,  0.00000000000000 ]
      - [ -0.70666825845230, -0.02489924689615 ]
      - [ -0.00000000000001,  0.00000000000000 ]
  - # 4
    frequency:   14.3900928529
    eigenvector:
    - # atom 1
      - [ -0.00000000000000,  0.00000000000000 ]
      - [ -0.00000000000031, -0.00000000000002 ]
      - [ -0.69643555353768, -0.12238267756781 ]
    - # atom 2
      - [  0.00764223989417, -0.04348922312161 ]
      - [  0.00000000000031,  0.00000000000002 ]
      - [  0.69507637544633,  0.12214383299236 ]
  - # 5
    frequency:   14.3900928529
    eigenvector:
    - # atom 1
      - [  0.70710678118655,  0.00000000000000 ]
      - [  0.00000000000000,  0.00000000000000 ]
      - [ -0.00000000000000, -0.00000000000000 ]
    - # atom 2
      - [ -0.70572677690568, -0.00000000000000 ]
      - [ -0.00000000000000, -0.00000000000000 ]
      - [  0.00000000000000,  0.04415559260525 ]
  - # 6
    frequency:   14.3964875136
    eigenvector:
    - # atom 1
      - [  0.00000000000000,  0.00000000000000 ]
      - [ -0.70687037563192, -0.01828310843351 ]
      - [  0.00000000000031,  0.00000000000004 ]
    - # atom 2
      - [ -0.00000000000000,  0.00000000000002 ]
      - [  0.70687037563192,  0.01828310843351 ]
      - [ -0.00000000000031, -0.00000000000004 ]

- q-position: [    0.0408163,    0.0000000,    0.0408163 ]
  distance:    0.0147495
  band:
  - # 1
    frequency:    0.4733259278
    eigenvector:
    - # atom 1
      - [ -0.59635022436668,  0.00000000000000 ]
      - [  0.00000000000000,  0.00000000000000 ]
      - [ -0.37654720945225, -0.05078000543056 ]
    - # atom 2
      - [ -0.59850762416424,  0.03137918765419 ]
      - [  0.00000000000000,  0.00000000000000 ]
      - [ -0.37523745485818, -0.00090712237099 ]
  - # 2
    frequency:    0.4733259278
    eigenvector:
    - # atom 1
      - [  0.37995579992653,  0.00000000000000 ]
      - [  0.00000000000001,  0.00000000000000 ]
      - [ -0.59100035552799, -0.07970050105226 ]
    - # atom 2
      - [  0.37199242705354,  0.04925042755405 ]
      - [  0.00000000000001,  0.00000000000000 ]
      - [ -0.58894466261267, -0.11108651574609 ]
  - # 3
    frequency:    1.1259774403
    eigenvector:
    - # atom 1
      - [ -0.00000000000000,  0.00000000000000 ]
      - [  0.70183708196835, -0.08616675910206 ]
      - [  0.00000000000001, -0.00000000000000 ]
    - # atom 2
      - [ -0.00000000000000, -0.00000000000000 ]
      - [  0.70183708196835, -0.08616675910206 ]
      - [  0.00000000000001, -0.00000000000000 ]
  - # 4
    frequency:   14.3785422167
    eigenvector:
    - # atom 1
      - [  0.00000000000000, -0.00000000000000 ]
      - [  0.00000000000002, -0.00000000000000 ]
      - [  0.68698565834058, -0.16748344764294 ]
    - # atom 2
      - [  0.01395706673860,  0.05724926741634 ]
      - [ -0.00000000000002,  0.00000000000000 ]
      - [ -0.68459609708640,  0.16690088532545 ]
  - # 5
    frequency:   14.3785422167
    eigenvector:
    - # atom 1
      - [  0.70710678118655,  0.00000000000000 ]
      - [  0.00000000000000,  0.00000000000000 ]
      - [ -0.00000000000000,  0.00000000000000 ]
    - # atom 2
      - [ -0.70464723207315, -0.00000000000000 ]
      - [ -0.00000000000000, -0.00000000000000 ]
      - [  0.00000000000000,  0.05892604120126 ]
  - # 6
    frequency:   14.3898549413
    eigenvector:
    - # atom 1
      - [  0.00000000000000,  0.00000000000000 ]
      - [ -0.70696691087073, -0.01406367426742 ]
      - [  0.00000000000002, -0.00000000000000 ]
    - # atom 2
      - [ -0.00000000000000,  0.00000000000000 ]
      - [  0.70696691087073,  0.01406367426742 ]
      - [ -0.00000000000002,  0.00000000000000 ]

- q-position: [    0.0510204,    0.0000000,    0.0510204 ]
  distance:    0.0184369
  band:
  - # 1
    frequency:    0.5916104947
    eigenvector:
    - # atom 1
      - [  0.01139085723417,  0.00000000000000 ]
      - [ -0.00000000000001,  0.00000000000000 ]
      - [  0.70093983123954, -0.09248568188294 ]
    - # atom 2
      - [  0.00168384777992, -0.07309774186961 ]
      - [ -0.00000000000001,  0.00000000000000 ]
      - [  0.69711790046712, -0.09316929557818 ]
  - # 2
    frequency:    0.5916104947
    eigenvector:
    - # atom 1
      - [  0.70701502697713,  0.00000000000000 ]
      - [ -0.00000000000000, -0.00000000000000 ]
      - [ -0.01129297856868,  0.00149005489040 ]
    - # atom 2
      - [  0.70331536157813,  0.00117769200089 ]
      - [ -0.00000000000000, -0.00000000000000 ]
      - [ -0.01123140269529, -0.07224936541782 ]
  - # 3
    frequency:    1.4063951522
    eigenvector:
    - # atom 1
      - [ -0.00000000000000,  0.00000000000000 ]
      - [ -0.70529176972366, -0.05063121132334 ]
      - [ -0.00000000000001, -0.00000000000000 ]
    - # atom 2
      - [ -0.00000000000000,  0.00000000000000 ]
      - [ -0.70529176972366, -0.05063121132334 ]
      - [ -0.00000000000001, -0.00000000000000 ]
  - # 4
    frequency:   14.3637366087
    eigenvector:
    - # atom 1
      - [  0.00000000000000, -0.00000000000000 ]
      - [ -0.00000000000009, -0.00000000000000 ]
      - [  0.70702513084510, -0.01074543407521 ]
    - # atom 2
      - [  0.00112059114249,  0.07373234934937 ]
      - [  0.00000000000009,  0.00000000000000 ]
      - [ -0.70317001948743,  0.01068684373218 ]
  - # 5
    frequency:   14.3637366087
    eigenvector:
    - # atom 1
      - [  0.70710678118655,  0.00000000000000 ]
      - [  0.00000000000000,  0.00000000000000 ]
      - [ -0.00000000000000,  0.00000000000000 ]
    - # atom 2
      - [ -0.70325122462383, -0.00000000000000 ]
      - [ -0.00000000000000,  0.00000000000000 ]
      - [  0.00000000000000,  0.07374086428220 ]
  - # 6
    frequency:   14.3813011403
    eigenvector:
    - # atom 1
      - [  0.00000000000000,  0.00000000000000 ]
      - [ -0.70675278293901, -0.02237194242718 ]
      - [ -0.00000000000009,  0.00000000000000 ]
    - # atom 2
      - [ -0.00000000000000, -0.00000000000001 ]
      - [  0.70675278293901,  0.02237194242718 ]
      - [  0.00000000000009, -0.00000000000000 ]

- q-position: [    0.0612245,    0.0000000,    0.0612245 ]
  distance:    0.0221243
  band:
  - # 1
    frequency:    0.7098575220
    eigenvector:
    - # atom 1
      - [  0.70432431463127,  0.00000000000000 ]
      - [ -0.00000000000000, -0.00000000000000 ]
      - [  0.02575900414566,  0.05712909525470 ]
    - # atom 2
      - [  0.70593126619585, -0.00322798609295 ]
      - [ -0.00000000000000, -0.00000000000000 ]
      - [  0.02555594647748, -0.03158355762970 ]
  - # 2
    frequency:    0.7098575220
    eigenvector:
    - # atom 1
      - [  0.06266785315612,  0.00000000000000 ]
      - [  0.00000000000000,  0.00000000000000 ]
      - [ -0.28950557625261, -0.64207418691258 ]
    - # atom 2
      - [ -0.01828759536720,  0.03627935182158 ]
      - [  0.00000000000000,  0.00000000000000 ]
      - [ -0.28722341010572, -0.64486594356838 ]
  - # 3
    frequency:    1.6860969868
    eigenvector:
    - # atom 1
      - [  0.00000000000000, -0.00000000000000 ]
      - [  0.70375169574719,  0.06880080474061 ]
      - [  0.00000000000000,  0.00000000000000 ]
    - # atom 2
      - [  0.00000000000000, -0.00000000000000 ]
      - [  0.70375169574719,  0.06880080474061 ]
      - [  0.00000000000000,  0.00000000000000 ]
  - # 4
    frequency:   14.3457100560
    eigenvector:
    - # atom 1
      - [  0.57997150145467,  0.00000000000000 ]
      - [ -0.00000000000002, -0.00000000000000 ]
      - [  0.40356017703413,  0.02778922475693 ]
    - # atom 2
      - [ -0.57888200166315,  0.05057208857016 ]
      - [  0.00000000000002,  0.00000000000000 ]
      - [ -0.40037892095548,  0.04510888673693 ]
  - # 5
    frequency:   14.3457100560
    eigenvector:
    - # atom 1
      - [ -0.40451583096389,  0.00000000000000 ]
      - [ -0.00000000000002, -0.00000000000000 ]
      - [  0.57860133988845,  0.03984259001220 ]
    - # atom 2
      - [  0.39633417275026,  0.07250734803096 ]
      - [  0.00000000000002,  0.00000000000000 ]
      - [ -0.57404023813861, -0.09022035795572 ]
  - # 6
    frequency:   14.3708066027
    eigenvector:
    - # atom 1
      - [ -0.00000000000001,  0.00000000000000 ]
      - [ -0.70675085340038, -0.02243281564675 ]
      - [ -0.00000000000003, -0.00000000000000 ]
    - # atom 2
      - [  0.00000000000001, -0.00000000000000 ]
      - [  0.70675085340038,  0.02243281564675 ]
      - [  0.00000000000003, -0.00000000000000 ]

- q-position: [    0.0714286,    0.0000000,    0.0714286 ]
  distance:    0.0258117
  band:
  - # 1
    frequency:    0.8280532440
    eigenvector:
    - # atom 1
      - [  0.70512933009563, -0.00000000000000 ]
      - [ -0.00000000000000,  0.00000000000000 ]
      - [  0.04425350195163, -0.02888347977498 ]
    - # atom 2
      - [  0.69329830622542, -0.00648038937003 ]
      - [ -0.00000000000000,  0.00000000000000 ]
      - [  0.04377644330683, -0.13182976200381 ]
  - # 2
    frequency:    0.8280532440
    eigenvector:
    - # atom 1
      - [  0.05284531993370,  0.00000000000000 ]
      - [  0.00000000000000, -0.00000000000000 ]
      - [ -0.59048638980119,  0.38540004621258 ]
    - # atom 2
      - [  0.10871280921565,  0.08646957991697 ]
      - [  0.00000000000000, -0.00000000000000 ]
      - [ -0.58412086787704,  0.37350682533522 ]
  - # 3
    frequency:    1.9649416538
    eigenvector:
    - # atom 1
      - [ -0.00000000000000,  0.00000000000000 ]
      - [ -0.70707556204401,  0.00664451353782 ]
      - [ -0.00000000000000, -0.00000000000000 ]
    - # atom 2
      - [ -0.00000000000000,  0.00000000000000 ]
      - [ -0.70707556204401,  0.00664451353782 ]
      - [ -0.00000000000000, -0.00000000000000 ]
  - # 4
    frequency:   14.3245042817
    eigenvector:
    - # atom 1
      - [ -0.00000000000000,  0.00000000000000 ]
      - [ -0.00000000000001, -0.00000000000000 ]
      - [ -0.66473759124387, -0.24108905986647 ]
    - # atom 2
      - [  0.03530457278829, -0.09734276905049 ]
      - [  0.00000000000001,  0.00000000000000 ]
      - [  0.65757163147925,  0.23849008769241 ]
  - # 5
    frequency:   14.3245042817
    eigenvector:
    - # atom 1
      - [  0.70710678118655,  0.00000000000000 ]
      - [  0.00000000000000,  0.00000000000000 ]
      - [ -0.00000000000000, -0.00000000000000 ]
    - # atom 2
      - [ -0.69948407591154, -0.00000000000000 ]
      - [ -0.00000000000000, -0.00000000000000 ]
      - [  0.00000000000000,  0.10354722374927 ]
  - # 6
    frequency:   14.3583476492
    eigenvector:
    - # atom 1
      - [ -0.00000000000000,  0.00000000000000 ]
      - [  0.70299020195196,  0.07618908031698 ]
      - [ -0.00000000000001, -0.00000000000000 ]
    - # atom 2
      - [  0.00000000000000, -0.00000000000000 ]
      - [ -0.70299020195196, -0.07618908031698 ]
      - [  0.00000000000001,  0.00000000000000 ]

- q-position: [    0.0816327,    0.0000000,    0.0816327 ]
  distance:    0.0294991
  band:
  - # 1
    frequency:    0.9461804875
    eigenvector:
    - # atom 1
      - [  0.70595228183293,  0.00000000000000 ]
      - [  0.00000000000000, -0.00000000000000 ]
      - [  0.03234996350445, -0.02418378870520 ]
    - # atom 2
      - [  0.69190342281810, -0.00542410093001 ]
      - [  0.00000000000000, -0.00000000000000 ]
      - [  0.03189199378905, -0.14220806360352 ]
  - # 2
    frequency:    0.9461804875
    eigenvector:
    - # atom 1
      - [  0.04039029307739,  0.00000000000000 ]
      - [ -0.00000000000000,  0.00000000000000 ]
      - [ -0.56542126370372,  0.42269068924784 ]
    - # atom 2
      - [  0.11069081843395,  0.09480387827575 ]
      - [ -0.00000000000000,  0.00000000000000 ]
      - [ -0.55741674724768,  0.40993455241796 ]
  - # 3
    frequency:    2.2427888871
    eigenvector:
    - # atom 1
      - [  0.00000000000000,  0.00000000000000 ]
      - [ -0.70650147740976,  0.02925170794710 ]
      - [  0.00000000000000, -0.00000000000000 ]
    - # atom 2
      - [  0.00000000000000, -0.00000000000000 ]
      - [ -0.70650147740976,  0.02925170794710 ]
      - [  0.00000000000000, -0.00000000000000 ]
  - # 4
    frequency:   14.3001687861
    eigenvector:
    - # atom 1
      - [  0.03085254478569,  0.00000000000000 ]
      - [  0.00000000000001,  0.00000000000000 ]
      - [  0.69835813941890, -0.10650835454378 ]
    - # atom 2
      - [ -0.01255757527180,  0.11709333251578 ]
      - [ -0.00000000000001, -0.00000000000000 ]
      - [ -0.68847167143825,  0.11017357401242 ]
  - # 5
    frequency:   14.3001687861
    eigenvector:
    - # atom 1
      - [ -0.70643338007221,  0.00000000000000 ]
      - [  0.00000000000001,  0.00000000000000 ]
      - [  0.03049986931630, -0.00465161170368 ]
    - # atom 2
      - [  0.69721252631091,  0.00511389663549 ]
      - [ -0.00000000000001, -0.00000000000000 ]
      - [ -0.03006809088573, -0.11386154366969 ]
  - # 6
    frequency:   14.3438965259
    eigenvector:
    - # atom 1
      - [ -0.00000000000001,  0.00000000000000 ]
      - [ -0.70684820823192, -0.01912094451960 ]
      - [  0.00000000000001, -0.00000000000000 ]
    - # atom 2
      - [  0.00000000000001,  0.00000000000000 ]
      - [  0.70684820823192,  0.01912094451960 ]
      - [ -0.00000000000001,  0.00000000000000 ]

- q-position: [    0.0918367,    0.0000000,    0.0918367 ]
  distance:    0.0331865
  band:
  - # 1
    frequency:    1.0642181090
    eigenvector:
    - # atom 1
      - [  0.05092720962291,  0.00000000000000 ]
      - [  0.00000000000000,  0.00000000000000 ]
      - [  0.55800858757242, -0.43131523914123 ]
    - # atom 2
      - [ -0.03151996874439, -0.10547721093810 ]
      - [  0.00000000000000,  0.00000000000000 ]
      - [  0.54794903209814, -0.43316614337432 ]
  - # 2
    frequency:    1.0642181090
    eigenvector:
    - # atom 1
      - [  0.70527045827826, -0.00000000000000 ]
      - [ -0.00000000000000, -0.00000000000000 ]
      - [ -0.04029350723134,  0.03114504703759 ]
    - # atom 2
      - [  0.69844329703342,  0.00761645404091 ]
      - [ -0.00000000000000, -0.00000000000000 ]
      - [ -0.03956711201042, -0.10272971383238 ]
  - # 3
    frequency:    2.5194996123
    eigenvector:
    - # atom 1
      - [ -0.00000000000000,  0.00000000000000 ]
      - [ -0.51269181620423, -0.48697751652126 ]
      - [  0.00000000000000, -0.00000000000000 ]
    - # atom 2
      - [ -0.00000000000000, -0.00000000000000 ]
      - [ -0.51269181620423, -0.48697751652126 ]
      - [  0.00000000000000, -0.00000000000000 ]
  - # 4
    frequency:   14.2727609438
    eigenvector:
    - # atom 1
      - [ -0.00000000000000,  0.00000000000000 ]
      - [ -0.00000000000001,  0.00000000000000 ]
      - [ -0.69260747737890, -0.14246010767524 ]
    - # atom 2
      - [  0.02692842935070, -0.13091967868562 ]
      - [  0.00000000000001, -0.00000000000000 ]
      - [  0.68012142699228,  0.13989189387361 ]
  - # 5
    frequency:   14.2727609438
    eigenvector:
    - # atom 1
      - [  0.70710678118655,  0.00000000000000 ]
      - [  0.00000000000000, -0.00000000000000 ]
      - [ -0.00000000000000, -0.00000000000000 ]
    - # atom 2
      - [ -0.69435934315422, -0.00000000000000 ]
      - [ -0.00000000000000,  0.00000000000000 ]
      - [  0.00000000000000,  0.13366040017313 ]
  - # 6
    frequency:   14.3274215172
    eigenvector:
    - # atom 1
      - [ -0.00000000000000,  0.00000000000000 ]
      - [  0.70710667399328, -0.00038935094752 ]
      - [ -0.00000000000001, -0.00000000000000 ]
    - # atom 2
      - [  0.00000000000000, -0.00000000000000 ]
      - [ -0.70710667399328,  0.00038935094752 ]
      - [  0.00000000000001,  0.00000000000000 ]

- q-position: [    0.1020408,    0.0000000,    0.1020408 ]
  distance:    0.0368739
  band:
  - # 1
    frequency:    1.1821404329
    eigenvector:
    - # atom 1
      - [ -0.02916243107332,  0.00000000000000 ]
      - [ -0.00000000000000,  0.00000000000000 ]
      - [ -0.31376518652817,  0.63300944727297 ]
    - # atom 2
      - [  0.10475032216295,  0.06605289550525 ]
      - [ -0.00000000000000,  0.00000000000000 ]
      - [ -0.30673377263098,  0.62496302108981 ]
  - # 2
    frequency:    1.1821404329
    eigenvector:
    - # atom 1
      - [ -0.70650516814380,  0.00000000000000 ]
      - [ -0.00000000000000,  0.00000000000000 ]
      - [  0.01295129326425, -0.02612874640869 ]
    - # atom 2
      - [ -0.69617307573615, -0.00272646698031 ]
      - [ -0.00000000000000,  0.00000000000000 ]
      - [  0.01266105742115,  0.12318811883801 ]
  - # 3
    frequency:    2.7949361129
    eigenvector:
    - # atom 1
      - [  0.00000000000000, -0.00000000000000 ]
      - [ -0.70622950831919,  0.03521195222123 ]
      - [  0.00000000000000, -0.00000000000000 ]
    - # atom 2
      - [  0.00000000000000, -0.00000000000000 ]
      - [ -0.70622950831919,  0.03521195222123 ]
      - [  0.00000000000000, -0.00000000000000 ]
  - # 4
    frequency:   14.2423461175
    eigenvector:
    - # atom 1
      - [ -0.05561814477007,  0.00000000000000 ]
      - [ -0.00000000000000,  0.00000000000000 ]
      - [ -0.69328537100301, -0.12752261103645 ]
    - # atom 2
      - [  0.08121742681328, -0.14594833376158 ]
      - [  0.00000000000000, -0.00000000000000 ]
      - [  0.67774898710289,  0.11295629214457 ]
  - # 5
    frequency:   14.2423461175
    eigenvector:
    - # atom 1
      - [  0.70491603895240,  0.00000000000000 ]
      - [ -0.00000000000001, -0.00000000000000 ]
      - [ -0.05470048062564, -0.01006158272781 ]
    - # atom 2
      - [ -0.68700088027153, -0.01151537928994 ]
      - [  0.00000000000001,  0.00000000000000 ]
      - [  0.05347465400060,  0.15823289141474 ]
  - # 6
    frequency:   14.3088870749
    eigenvector:
    - # atom 1
      - [ -0.00000000000001,  0.00000000000000 ]
      - [ -0.70704780933833, -0.00913210325559 ]
      - [  0.00000000000000,  0.00000000000000 ]
    - # atom 2
      - [  0.00000000000001,  0.00000000000000 ]
      - [  0.70704780933833,  0.00913210325559 ]
      - [ -0.00000000000000, -0.00000000000000 ]

- q-position: [    0.1122449,    0.0000000,    0.1122449 ]
  distance:    0.0405612
  band:
  - # 1
    frequency:    1.2999166924
    eigenvector:
    - # atom 1
      - [ -0.02765511966047,  0.00000000000000 ]
      - [  0.00000000000000, -0.00000000000000 ]
      - [  0.37964723623610, -0.59590533675648 ]
    - # atom 2
      - [ -0.16524564666270, -0.08813938422598 ]
      - [  0.00000000000000, -0.00000000000000 ]
      - [  0.36927425164771, -0.57320315096597 ]
  - # 2
    frequency:    1.2999166924
    eigenvector:
    - # atom 1
      - [ -0.70656577496831,  0.00000000000000 ]
      - [  0.00000000000000,  0.00000000000000 ]
      - [ -0.01485946548621,  0.02332384892978 ]
    - # atom 2
      - [ -0.68184560139368,  0.00344979236743 ]
      - [  0.00000000000000,  0.00000000000000 ]
      - [ -0.01445346488415,  0.18672378569842 ]
  - # 3
    frequency:    3.0689621941
    eigenvector:
    - # atom 1
      - [  0.00000000000000,  0.00000000000000 ]
      - [  0.70709374391598, -0.00429386945360 ]
      - [ -0.00000000000000,  0.00000000000000 ]
    - # atom 2
      - [  0.00000000000000,  0.00000000000000 ]
      - [  0.70709374391598, -0.00429386945360 ]
      - [ -0.00000000000000, -0.00000000000000 ]
  - # 4
    frequency:   14.2089977875
    eigenvector:
    - # atom 1
      - [ -0.56581810096387,  0.00000000000000 ]
      - [  0.00000000000000, -0.00000000000000 ]
      - [ -0.41377823756756,  0.09293786492666 ]
    - # atom 2
      - [  0.52878185445660, -0.09606328081534 ]
      - [ -0.00000000000000,  0.00000000000000 ]
      - [  0.40247270213458, -0.22175960072323 ]
  - # 5
    frequency:   14.2089977875
    eigenvector:
    - # atom 1
      - [  0.42408710970936,  0.00000000000000 ]
      - [  0.00000000000000, -0.00000000000001 ]
      - [ -0.55206397751892,  0.12399793588746 ]
    - # atom 2
      - [ -0.44128742631380, -0.12816787371950 ]
      - [ -0.00000000000000,  0.00000000000001 ]
      - [  0.53698010337464, -0.02215337679295 ]
  - # 6
    frequency:   14.2882539614
    eigenvector:
    - # atom 1
      - [  0.00000000000000,  0.00000000000000 ]
      - [ -0.67373895078699,  0.21465280383086 ]
      - [ -0.00000000000001, -0.00000000000000 ]
    - # atom 2
      - [ -0.00000000000000, -0.00000000000000 ]
      - [  0.67373895078699, -0.21465280383086 ]
      - [  0.00000000000001,  0.00000000000000 ]

- q-position: [    0.1224490,    0.0000000,    0.1224490 ]
  distance:    0.0442486
  band:
  - # 1
    frequency:    1.4175104718
    eigenvector:
    - # atom 1
      - [ -0.52346643112567,  0.00000000000000 ]
      - [ -0.00000000000000,  0.00000000000000 ]
      - [ -0.42983074612289,  0.20304783961420 ]
    - # atom 2
      - [ -0.45473477980474,  0.10916439802305 ]
      - [ -0.00000000000000,  0.00000000000000 ]
      - [ -0.41573742255999,  0.32933540611871 ]
  - # 2
    frequency:    1.4175104718