nqpoint: 500    
npath: 10     
segment_nqpoint:
- 50
- 50
- 50
- 50
- 50
- 50
- 50
- 50
- 50
- 50
labels:
- [ 'G', 'X' ]
- [ 'X', 'W' ]
- [ 'W', 'K' ]
- [ 'K', 'G' ]
- [ 'G', 'L' ]
- [ 'L', 'U' ]
- [ 'U', 'W' ]
- [ 'W', 'L' ]
- [ 'L', 'K|U' ]
- [ 'K|U', 'X' ]
reciprocal_lattice:
- [  -0.18068189,   0.18068189,   0.18068189 ] # a*
- [   0.18068189,  -0.18068189,   0.18068189 ] # b*
- [   0.18068189,   0.18068189,  -0.18068189 ] # c*
natom: 2      
lattice:
- [     0.000000000000000,     2.767294438168200,     2.767294438168200 ] # a
- [     2.767294438168200,     0.000000000000000,     2.767294438168200 ] # b
- [     2.767294438168200,     2.767294438168200,     0.000000000000000 ] # c
points:
- symbol: Si # 1
  coordinates: [  0.000000000000000,  0.000000000000000,  0.000000000000000 ]
  mass: 28.085000
  magnetic_moment: 0.00000000
- symbol: Si # 2
  coordinates: [  0.250000000000000,  0.250000000000000,  0.250000000000000 ]
  mass: 28.085000
  magnetic_moment: 0.00000000

phonon:
- q-position: [    0.0000000,    0.0000000,    0.0000000 ]
  distance:    0.0000000
  band:
  - # 1
    frequency:    0.0000004182
    eigenvector:
    - # atom 1
      - [  0.00356046656016,  0.00000000000000 ]
      - [  0.65128316618438,  0.00000000000000 ]
      - [  0.27534988745725,  0.00000000000000 ]
    - # atom 2
      - [  0.00356046656016,  0.00000000000000 ]
      - [  0.65128316618438,  0.00000000000000 ]
      - [  0.27534988745725,  0.00000000000000 ]
  - # 2
    frequency:    0.0000004693
    eigenvector:
    - # atom 1
      - [  0.70709206705254,  0.00000000000000 ]
      - [ -0.00216893235886,  0.00000000000000 ]
      - [ -0.00401303423792,  0.00000000000000 ]
    - # atom 2
      - [  0.70709206705254,  0.00000000000000 ]
      - [ -0.00216893235886,  0.00000000000000 ]
      - [ -0.00401303423792,  0.00000000000000 ]
  - # 3
    frequency:    0.0000004872
    eigenvector:
    - # atom 1
      - [ -0.00285162922660,  0.00000000000000 ]
      - [  0.27536436439247,  0.00000000000000 ]
      - [ -0.65128053481851,  0.00000000000000 ]
    - # atom 2
      - [ -0.00285162922660,  0.00000000000000 ]
      - [  0.27536436439247,  0.00000000000000 ]
      - [ -0.65128053481851,  0.00000000000000 ]
  - # 4
    frequency:   14.4049892728
    eigenvector:
    - # atom 1
      - [ -0.00000000000000,  0.00000000000000 ]
      - [  0.30708410372716,  0.00000000000000 ]
      - [ -0.63694532986598,  0.00000000000000 ]
    - # atom 2
      - [  0.00000000000000,  0.00000000000000 ]
      - [ -0.30708410372716,  0.00000000000000 ]
      - [  0.63694532986599,  0.00000000000000 ]
  - # 5
    frequency:   14.4049892728
    eigenvector:
    - # atom 1
      - [  0.00000000000000,  0.00000000000000 ]
      - [ -0.63694532986599,  0.00000000000000 ]
      - [ -0.30708410372716,  0.00000000000000 ]
    - # atom 2
      - [  0.00000000000000,  0.00000000000000 ]
      - [  0.63694532986599,  0.00000000000000 ]
      - [  0.30708410372716,  0.00000000000000 ]
  - # 6
    frequency:   14.4049892728
    eigenvector:
    - # atom 1
      - [  0.70710678118655,  0.00000000000000 ]
      - [  0.00000000000000,  0.00000000000000 ]
      - [ -0.00000000000000,  0.00000000000000 ]
    - # atom 2
      - [ -0.70710678118655,  0.00000000000000 ]
      - [ -0.00000000000000,  0.00000000000000 ]
      - [  0.00000000000000,  0.00000000000000 ]

- q-position: [    0.0102041,    0.0000000,    0.0102041 ]
  distance:    0.0036874
  band:
  - # 1
    frequency:    0.1183456800
    eigenvector:
    - # atom 1
      - [ -0.00529787556685,  0.00000000000000 ]
      - [  0.00000000000015,  0.00000000000010 ]
      - [ -0.61067366882488, -0.35644018112222 ]
    - # atom 2
      - [ -0.01270859616531,  0.01269843219611 ]
      - [  0.00000000000015,  0.00000000000010 ]
      - [ -0.61054162807772, -0.35625294635619 ]
  - # 2
    frequency:    0.1183456800
    eigenvector:
    - # atom 1
      - [ -0.70708693419867,  0.00000000000000 ]
      - [  0.00000000000014, -0.00000000000000 ]
      - [  0.00457549553373,  0.00267064152267 ]
    - # atom 2
      - [ -0.70687851314847, -0.00009514348295 ]
      - [  0.00000000000014, -0.00000000000000 ]
      - [  0.00457450621344,  0.01737332695932 ]
  - # 3
    frequency:    0.2818535134
    eigenvector:
    - # atom 1
      - [ -0.00000000000014,  0.00000000000000 ]
      - [ -0.70710592427334,  0.00110084401620 ]
      - [ -0.00000000000018,  0.00000000000001 ]
    - # atom 2
      - [ -0.00000000000014,  0.00000000000000 ]
      - [ -0.70710592427334,  0.00110084401620 ]
      - [ -0.00000000000018,  0.00000000000001 ]
  - # 4
    frequency:   14.4033316633
    eigenvector:
    - # atom 1
      - [  0.16972489398930,  0.00000000000000 ]
      - [  0.00000000000055, -0.00000000000002 ]
      - [ -0.68629694688489,  0.01378263606124 ]
    - # atom 2
      - [ -0.16997479385479, -0.01427095303321 ]
      - [ -0.00000000000055,  0.00000000000002 ]
      - [  0.68614855476278, -0.01025037318829 ]
  - # 5
    frequency:   14.4033316633
    eigenvector:
    - # atom 1
      - [ -0.68643532860738,  0.00000000000000 ]
      - [  0.00000000000015, -0.00000000000000 ]
      - [ -0.16969067835062,  0.00340783224129 ]
    - # atom 2
      - [  0.68621604363219, -0.00352857128668 ]
      - [ -0.00000000000015,  0.00000000000000 ]
      - [  0.16965398758582, -0.01768092595662 ]
  - # 6
    frequency:   14.4040461435
    eigenvector:
    - # atom 1
      - [  0.00000000000001,  0.00000000000000 ]
      - [  0.66862846561863,  0.23007819315283 ]
      - [  0.00000000000054,  0.00000000000020 ]
    - # atom 2
      - [ -0.00000000000002,  0.00000000000001 ]
      - [ -0.66862846561863, -0.23007819315283 ]
      - [ -0.00000000000054, -0.00000000000020 ]

- q-position: [    0.0204082,    0.0000000,    0.0204082 ]
  distance:    0.0073748
  band:
  - # 1
    frequency:    0.2366861295
    eigenvector:
    - # atom 1
      - [  0.70699547801609,  0.00000000000000 ]
      - [  0.00000000000001, -0.00000000000000 ]
      - [  0.01058472063535, -0.00673481654315 ]
    - # atom 2
      - [  0.70610314966936, -0.00044036711058 ]
      - [  0.00000000000001, -0.00000000000000 ]
      - [  0.01057555614312, -0.03614285152109 ]
  - # 2
    frequency:    0.2366861295
    eigenvector:
    - # atom 1
      - [  0.01254567912862,  0.00000000000000 ]
      - [ -0.00000000000002,  0.00000000000002 ]
      - [ -0.59648820510529,  0.37953185255715 ]
    - # atom 2
      - [  0.02832487408900,  0.02481631744748 ]
      - [ -0.00000000000002,  0.00000000000002 ]
      - [ -0.59597175203031,  0.37868129433352 ]
  - # 3
    frequency:    0.5635631647
    eigenvector:
    - # atom 1
      - [ -0.00000000000001,  0.00000000000000 ]
      - [  0.70705535521206,  0.00852787581651 ]
      - [ -0.00000000000003, -0.00000000000001 ]
    - # atom 2
      - [ -0.00000000000001,  0.00000000000000 ]
      - [  0.70705535521206,  0.00852787581651 ]
      - [ -0.00000000000003, -0.00000000000000 ]
  - # 4
    frequency:   14.3983625914
    eigenvector:
    - # atom 1
      - [  0.70710678118655,  0.00000000000000 ]
      - [  0.00000000000000,  0.00000000000000 ]
      - [ -0.00000000000000, -0.00000000000000 ]
    - # atom 2
      - [ -0.70649455202869, -0.00000000000000 ]
      - [ -0.00000000000000, -0.00000000000000 ]
      - [  0.00000000000000,  0.02941849679675 ]
  - # 5
    frequency:   14.3983625914
    eigenvector:
    - # atom 1
      - [ -0.00000000000000,  0.00000000000000 ]
      - [ -0.00000000000042, -0.00000000000007 ]
      - [ -0.70539009436372, -0.04924240828336 ]
    - # atom 2
      - [  0.00204868298380, -0.02934707569439 ]
      - [  0.00000000000042,  0.00000000000007 ]
      - [  0.70477935155242,  0.04919977308461 ]
  - # 6
    frequency:   14.4012145581
    eigenvector:
    - # atom 1
      - [  0.00000000000000,  0.00000000000000 ]
      - [ -0.70700996241862, -0.01170098460912 ]
      - [  0.00000000000043, -0.00000000000003 ]
    - # atom 2
      - [  0.00000000000000,  0.00000000000002 ]
      - [  0.70700996241862,  0.01170098460912 ]
      - [ -0.00000000000043,  0.00000000000003 ]

- q-position: [    0.0306122,    0.0000000,    0.0306122 ]
  distance:    0.0110622
  band:
  - # 1
    frequency:    0.3550155485
    eigenvector:
    - # atom 1
      - [ -0.70710660908346,  0.00000000000000 ]
      - [  0.00000000000002,  0.00000000000000 ]
      - [  0.00030507372233,  0.00038771190360 ]
    - # atom 2
      - [ -0.70570239452124, -0.00001905046067 ]
      - [  0.00000000000002,  0.00000000000000 ]
      - [  0.00030447833421,  0.04454253357195 ]
  - # 2
    frequency:    0.3550155485
    eigenvector:
    - # atom 1
      - [  0.00049334622351,  0.00000000000000 ]
      - [  0.00000000000001,  0.00000000000002 ]
      - [  0.43725812631569,  0.55570233720977 ]
    - # atom 2
      - [  0.03519345642852, -0.02730477300177 ]
      - [  0.00000000000001,  0.00000000000002 ]
      - [  0.43640476441078,  0.55458700994119 ]
  - # 3
    frequency:    0.8449852639
    eigenvector:
    - # atom 1
      - [  0.00000000000002,  0.00000000000000 ]
      - [  0.70709590608823,  0.00392168245312 ]
      - [ -0.00000000000002,  0.00000000000001 ]
    - # atom 2
      - [  0.00000000000002,  0.00000000000000 ]
      - [  0.70709590608823,  0.00392168245312 ]
      - [ -0.00000000000002,  0.00000000000000 ]
  - # 4
    frequency:   14.3900933342
    eigenvector:
    - # atom 1
      - [ -0.69408701495571,  0.00000000000000 ]
      - [ -0.00000000000003,  0.00000000000000 ]
      - [ -0.13464056109038, -0.01073009688396 ]
    - # atom 2
      - [  0.69340246608277, -0.00840768812779 ]
      - [  0.00000000000003, -0.00000000000000 ]
      - [  0.13437779381683, -0.03263340833554 ]
  - # 5
    frequency:   14.3900933342
    eigenvector:
    - # atom 1
      - [  0.13506744859466,  0.00000000000000 ]
      - [ -0.00000000000011,  0.00000000000001 ]
      - [ -0.69189331783141, -0.05514001333305 ]
    - # atom 2
      - [ -0.13136060619414, -0.04320557777625 ]
      - [  0.00000000000011, -0.00000000000001 ]
      - [  0.69054300467732,  0.06346674625777 ]
  - # 6
    frequency:   14.3964879332
    eigenvector:
    - # atom 1
      - [  0.00000000000001,  0.00000000000000 ]
      - [ -0.70332041888254,  0.07307796099295 ]
      - [  0.00000000000012,  0.00000000000000 ]
    - # atom 2
      - [ -0.00000000000001,  0.00000000000001 ]
      - [  0.70332041888254, -0.07307796099295 ]
      - [ -0.00000000000012, -0.00000000000000 ]

- q-position: [    0.0408163,    0.0000000,    0.0408163 ]
  distance:    0.0147495
  band:
  - # 1
    frequency:    0.4733269971
    eigenvector:
    - # atom 1
      - [ -0.49600857361896,  0.00000000000000 ]
      - [  0.00000000000000,  0.00000000000000 ]
      - [ -0.50362922225955,  0.01825106524904 ]
    - # atom 2
      - [ -0.49276235925446,  0.04196943761509 ]
      - [  0.00000000000000,  0.00000000000000 ]
      - [ -0.50187743505764,  0.05952196055427 ]
  - # 2
    frequency:    0.4733269971
    eigenvector:
    - # atom 1
      - [  0.50395981476352,  0.00000000000000 ]
      - [ -0.00000000000001,  0.00000000000000 ]
      - [ -0.49568319704817,  0.01796310851779 ]
    - # atom 2
      - [  0.50370381533821,  0.04130726355001 ]
      - [ -0.00000000000001,  0.00000000000000 ]
      - [ -0.49395904872156, -0.02409636026125 ]
  - # 3
    frequency:    1.1259764646
    eigenvector:
    - # atom 1
      - [ -0.00000000000001,  0.00000000000000 ]
      - [ -0.70684035262052,  0.01940917070083 ]
      - [  0.00000000000000,  0.00000000000000 ]
    - # atom 2
      - [ -0.00000000000001, -0.00000000000000 ]
      - [ -0.70684035262052,  0.01940917070083 ]
      - [  0.00000000000000,  0.00000000000000 ]
  - # 4
    frequency:   14.3785427111
    eigenvector:
    - # atom 1
      - [ -0.03525574516918,  0.00000000000000 ]
      - [  0.00000000000010,  0.00000000000000 ]
      - [ -0.66758847894754, -0.23039673437157 ]
    - # atom 2
      - [  0.05433299561871, -0.05563281831431 ]
      - [ -0.00000000000010, -0.00000000000000 ]
      - [  0.66526638781009,  0.22665733688459 ]
  - # 5
    frequency:   14.3785427111
    eigenvector:
    - # atom 1
      - [  0.70622732348201,  0.00000000000000 ]
      - [ -0.00000000000000, -0.00000000000000 ]
      - [ -0.03332684605803, -0.01150169114778 ]
    - # atom 2
      - [ -0.70281235187195, -0.00277725938988 ]
      - [  0.00000000000000,  0.00000000000000 ]
      - [  0.03321092438426,  0.07031443228840 ]
  - # 6
    frequency:   14.3898553261
    eigenvector:
    - # atom 1
      - [  0.00000000000001,  0.00000000000000 ]
      - [  0.68983822583050,  0.15531652256933 ]
      - [  0.00000000000009,  0.00000000000005 ]
    - # atom 2
      - [ -0.00000000000001,  0.00000000000001 ]
      - [ -0.68983822583050, -0.15531652256933 ]
      - [ -0.00000000000009, -0.00000000000005 ]

- q-position: [    0.0510204,    0.0000000,    0.0510204 ]
  distance:    0.0184369
  band:
  - # 1
    frequency:    0.5916118275
    eigenvector:
    - # atom 1
      - [  0.01515153849819, -0.00000000000000 ]
      - [  0.00000000000001, -0.00000000000000 ]
      - [  0.65215008036828, -0.27289320907049 ]
    - # atom 2
      - [ -0.01338983267867, -0.06800968119259 ]
      - [  0.00000000000001, -0.00000000000000 ]
      - [  0.64859418019932, -0.27298532022160 ]
  - # 2
    frequency:    0.5916118275
    eigenvector:
    - # atom 1
      - [  0.70694443266861,  0.00000000000000 ]
      - [ -0.00000000000001,  0.00000000000000 ]
      - [ -0.01397716226720,  0.00584876515332 ]
    - # atom 2
      - [  0.70369970229470,  0.00145761286916 ]
      - [ -0.00000000000001,  0.00000000000000 ]
      - [ -0.01390095067854, -0.06790705357556 ]
  - # 3
    frequency:    1.4063939354
    eigenvector:
    - # atom 1
      - [ -0.00000000000001,  0.00000000000000 ]
      - [ -0.70707549886356, -0.00665123348306 ]
      - [  0.00000000000001,  0.00000000000000 ]
    - # atom 2
      - [ -0.00000000000001, -0.00000000000000 ]
      - [ -0.70707549886356, -0.00665123348306 ]
      - [  0.00000000000001,  0.00000000000000 ]
  - # 4
    frequency:   14.3637371197
    eigenvector:
    - # atom 1
      - [  0.70710678118655,  0.00000000000000 ]
      - [ -0.00000000000000,  0.00000000000000 ]
      - [ -0.00000000000000, -0.00000000000000 ]
    - # atom 2
      - [ -0.70325122523650, -0.00000000000000 ]
      - [ -0.00000000000000, -0.00000000000000 ]
      - [  0.00000000000000,  0.07374085843930 ]
  - # 5
    frequency:   14.3637371197
    eigenvector:
    - # atom 1
      - [  0.00000000000000,  0.00000000000000 ]
      - [ -0.00000000000001,  0.00000000000000 ]
      - [  0.69530919397798,  0.12862785378640 ]
    - # atom 2
      - [ -0.01341399716390,  0.07251054325718 ]
      - [  0.00000000000001, -0.00000000000000 ]
      - [ -0.69151796531027, -0.12792650018578 ]
  - # 6
    frequency:   14.3813014806
    eigenvector:
    - # atom 1
      - [ -0.00000000000000,  0.00000000000000 ]
      - [ -0.70413646280062,  0.06474443415950 ]
      - [ -0.00000000000001, -0.00000000000000 ]
    - # atom 2
      - [  0.00000000000000, -0.00000000000000 ]
      - [  0.70413646280062, -0.06474443415950 ]
      - [  0.00000000000001,  0.00000000000000 ]

- q-position: [    0.0612245,    0.0000000,    0.0612245 ]
  distance:    0.0221243
  band:
  - # 1
    frequency:    0.7098591159
    eigenvector:
    - # atom 1
      - [  0.17445748039403,  0.00000000000000 ]
      - [ -0.00000000000001, -0.00000000000001 ]
      - [  0.43279445648394,  0.53127539560132 ]
    - # atom 2
      - [  0.23965893462147, -0.05423557403768 ]
      - [ -0.00000000000001, -0.00000000000001 ]
      - [  0.42938274775780,  0.50522525025267 ]
  - # 2
    frequency:    0.7098591159
    eigenvector:
    - # atom 1
      - [ -0.68524782928118,  0.00000000000000 ]
      - [ -0.00000000000000, -0.00000000000000 ]
      - [  0.11018528943885,  0.13525758557918 ]
    - # atom 2
      - [ -0.66289625187384, -0.01380785343642 ]
      - [ -0.00000000000000, -0.00000000000000 ]
      - [  0.10931670134157,  0.22006308468913 ]
  - # 3
    frequency:    1.6860955309
    eigenvector:
    - # atom 1
      - [ -0.00000000000000,  0.00000000000000 ]
      - [  0.44173528321564,  0.55215028711610 ]
      - [  0.00000000000000,  0.00000000000001 ]
    - # atom 2
      - [  0.00000000000000, -0.00000000000000 ]
      - [  0.44173528321564,  0.55215028711610 ]
      - [  0.00000000000000,  0.00000000000001 ]
  - # 4
    frequency:   14.3457105873
    eigenvector:
    - # atom 1
      - [  0.70710678118655,  0.00000000000000 ]
      - [  0.00000000000000,  0.00000000000000 ]
      - [ -0.00000000000000, -0.00000000000000 ]
    - # atom 2
      - [ -0.70153267472666, -0.00000000000000 ]
      - [ -0.00000000000000, -0.00000000000000 ]
      - [  0.00000000000000,  0.08861098290202 ]
  - # 5
    frequency:   14.3457105873
    eigenvector:
    - # atom 1
      - [ -0.00000000000000,  0.00000000000000 ]
      - [ -0.00000000000006, -0.00000000000001 ]
      - [ -0.67711111801374, -0.20376588002457 ]
    - # atom 2
      - [  0.02553489146374, -0.08485208075702 ]
      - [  0.00000000000006,  0.00000000000001 ]
      - [  0.67177346667535,  0.20215959828839 ]
  - # 6
    frequency:   14.3708068889
    eigenvector:
    - # atom 1
      - [ -0.00000000000000,  0.00000000000000 ]
      - [  0.70470768194813,  0.05819865121542 ]
      - [ -0.00000000000006, -0.00000000000001 ]
    - # atom 2
      - [  0.00000000000000, -0.00000000000001 ]
      - [ -0.70470768194813, -0.05819865121542 ]
      - [  0.00000000000005,  0.00000000000001 ]

- q-position: [    0.0714286,    0.0000000,    0.0714286 ]
  distance:    0.0258117
  band:
  - # 1
    frequency:    0.8280550960
    eigenvector:
    - # atom 1
      - [ -0.70687949400264,  0.00000000000000 ]
      - [  0.00000000000000,  0.00000000000000 ]
      - [ -0.01757325771410,  0.00354423078912 ]
    - # atom 2
      - [ -0.69874023048367,  0.00257339054623 ]
      - [  0.00000000000000,  0.00000000000000 ]
      - [ -0.01738381568536,  0.10701995569491 ]
  - # 2
    frequency:    0.8280550960
    eigenvector:
    - # atom 1
      - [  0.01792710123173,  0.00000000000000 ]
      - [ -0.00000000000000,  0.00000000000000 ]
      - [ -0.69292716989481,  0.13975176658273 ]
    - # atom 2
      - [  0.03819879668584,  0.10147078346242 ]
      - [ -0.00000000000000,  0.00000000000000 ]
      - [ -0.68545732389548,  0.13562001752440 ]
  - # 3
    frequency:    1.9649399611
    eigenvector:
    - # atom 1
      - [ -0.00000000000000,  0.00000000000000 ]
      - [ -0.70695758991017, -0.01452467102555 ]
      - [  0.00000000000000,  0.00000000000000 ]
    - # atom 2
      - [ -0.00000000000000, -0.00000000000000 ]
      - [ -0.70695758991017, -0.01452467102555 ]
      - [  0.00000000000000,  0.00000000000000 ]
  - # 4
    frequency:   14.3245048369
    eigenvector:
    - # atom 1
      - [  0.70710678118655,  0.00000000000000 ]
      - [  0.00000000000000,  0.00000000000000 ]
      - [ -0.00000000000000,  0.00000000000000 ]
    - # atom 2
      - [ -0.69948407711312, -0.00000000000000 ]
      - [ -0.00000000000000, -0.00000000000000 ]
      - [  0.00000000000000,  0.10354721563232 ]
  - # 5
    frequency:   14.3245048369
    eigenvector:
    - # atom 1
      - [  0.00000000000000,  0.00000000000000 ]
      - [  0.00000000000007,  0.00000000000001 ]
      - [  0.70706716924686, -0.00748452892560 ]
    - # atom 2
      - [  0.00109601852391,  0.10354141494398 ]
      - [ -0.00000000000007, -0.00000000000001 ]
      - [ -0.69944489219535,  0.00740384471970 ]
  - # 6
    frequency:   14.3583478719
    eigenvector:
    - # atom 1
      - [ -0.00000000000000,  0.00000000000000 ]
      - [  0.69864287459017,  0.10907856702569 ]
      - [ -0.00000000000007,  0.00000000000000 ]
    - # atom 2
      - [  0.00000000000000, -0.00000000000001 ]
      - [ -0.69864287459017, -0.10907856702569 ]
      - [  0.00000000000007, -0.00000000000000 ]

- q-position: [    0.0816327,    0.0000000,    0.0816327 ]
  distance:    0.0294991
  band:
  - # 1
    frequency:    0.9461825943
    eigenvector:
    - # atom 1
      - [ -0.70701172213238,  0.00000000000000 ]
      - [ -0.00000000000000, -0.00000000000000 ]
      - [ -0.00285141523730, -0.01123806916492 ]
    - # atom 2
      - [ -0.69888703013091,  0.00047809521746 ]
      - [ -0.00000000000000, -0.00000000000000 ]
      - [ -0.00281104852654,  0.10746528995883 ]
  - # 2
    frequency:    0.9461825943
    eigenvector:
    - # atom 1
      - [  0.01159416954383,  0.00000000000000 ]
      - [  0.00000000000000,  0.00000000000000 ]
      - [ -0.17387912000251, -0.68529674365178 ]
    - # atom 2
      - [ -0.10347329235173,  0.02915421598411 ]
      - [  0.00000000000000,  0.00000000000000 ]
      - [ -0.17141756054501, -0.67753917185433 ]
  - # 3
    frequency:    2.2427869602
    eigenvector:
    - # atom 1
      - [  0.00000000000000,  0.00000000000000 ]
      - [ -0.70701505509684, -0.01138911174830 ]
      - [ -0.00000000000000, -0.00000000000000 ]
    - # atom 2
      - [  0.00000000000000,  0.00000000000000 ]
      - [ -0.70701505509684, -0.01138911174830 ]
      - [ -0.00000000000000, -0.00000000000000 ]
  - # 4
    frequency:   14.3001693686
    eigenvector:
    - # atom 1
      - [ -0.70632949895742,  0.00000000000000 ]
      - [  0.00000000000001,  0.00000000000000 ]
      - [ -0.03310883432093, -0.00156332737226 ]
    - # atom 2
      - [  0.69659230639291, -0.00555133995825 ]
      - [ -0.00000000000001, -0.00000000000000 ]
      - [  0.03264012154939, -0.11688868107781 ]
  - # 5
    frequency:   14.3001693686
    eigenvector:
    - # atom 1
      - [ -0.03314572223627,  0.00000000000000 ]
      - [  0.00000000000000,  0.00000000000000 ]
      - [  0.70554342398308,  0.03331423076812 ]
    - # atom 2
      - [  0.02709070858547,  0.11829807609258 ]
      - [ -0.00000000000000, -0.00000000000000 ]
      - [ -0.69555523743162, -0.03840013518952 ]
  - # 6
    frequency:   14.3438966758
    eigenvector:
    - # atom 1
      - [  0.00000000000001,  0.00000000000000 ]
      - [  0.70625949231873,  0.03460533932336 ]
      - [  0.00000000000000,  0.00000000000000 ]
    - # atom 2
      - [ -0.00000000000001,  0.00000000000000 ]
      - [ -0.70625949231873, -0.03460533932336 ]
      - [ -0.00000000000000,  0.00000000000000 ]

- q-position: [    0.0918367,    0.0000000,    0.0918367 ]
  distance:    0.0331865
  band:
  - # 1
    frequency:    1.0642204667
    eigenvector:
    - # atom 1
      - [ -0.06093013291775, -0.00000000000000 ]
      - [  0.00000000000000, -0.00000000000000 ]
      - [ -0.24427695605936,  0.66076946633527 ]
    - # atom 2
      - [  0.06506980063330,  0.04617428943778 ]
      - [  0.00000000000000, -0.00000000000000 ]
      - [ -0.23987322955374,  0.66037465864759 ]
  - # 2
    frequency:    1.0642204667
    eigenvector:
    - # atom 1
      - [ -0.70447676959757,  0.00000000000000 ]
      - [  0.00000000000000, -0.00000000000000 ]
      - [  0.02112749212432, -0.05714989216010 ]
    - # atom 2
      - [ -0.70257946676391, -0.00399361017175 ]
      - [  0.00000000000000, -0.00000000000000 ]
      - [  0.02074661421195,  0.07704363671506 ]
  - # 3
    frequency:    2.5194974544
    eigenvector:
    - # atom 1
      - [  0.00000000000000,  0.00000000000000 ]
      - [  0.70632209771301, -0.03330306716049 ]
      - [  0.00000000000000, -0.00000000000000 ]
    - # atom 2
      - [  0.00000000000000, -0.00000000000000 ]
      - [  0.70632209771301, -0.03330306716049 ]
      - [  0.00000000000000, -0.00000000000000 ]
  - # 4
    frequency:   14.2727615570
    eigenvector:
    - # atom 1
      - [ -0.70494050620832,  0.00000000000000 ]
      - [ -0.00000000000000, -0.00000000000000 ]
      - [ -0.04540344185431, -0.03158180131871 ]
    - # atom 2
      - [  0.69820185192193, -0.00858235545208 ]
      - [  0.00000000000000,  0.00000000000000 ]
      - [  0.04458492690487, -0.10223845382519 ]
  - # 5
    frequency:   14.2727615570
    eigenvector:
    - # atom 1
      - [  0.05530716686608,  0.00000000000000 ]
      - [  0.00000000000000, -0.00000000000001 ]
      - [ -0.57870845855981, -0.40253898852730 ]
    - # atom 2
      - [  0.02177955349715, -0.10938998216081 ]
      - [ -0.00000000000000,  0.00000000000001 ]
      - [  0.56827573572301,  0.40573657838651 ]
  - # 6
    frequency:   14.3274215855
    eigenvector:
    - # atom 1
      - [  0.00000000000000,  0.00000000000000 ]
      - [ -0.62812370020559,  0.32474700497469 ]
      - [  0.00000000000000, -0.00000000000001 ]
    - # atom 2
      - [  0.00000000000000,  0.00000000000000 ]
      - [  0.62812370020559, -0.32474700497469 ]
      - [ -0.00000000000000,  0.00000000000001 ]

- q-position: [    0.1020408,    0.0000000,    0.1020408 ]
  distance:    0.0368739
  band:
  - # 1
    frequency:    1.1821430373
    eigenvector:
    - # atom 1
      - [ -0.70474191744860,  0.00000000000000 ]
      - [  0.00000000000000,  0.00000000000000 ]
      - [  0.05775551139545, -0.00176937681594 ]
    - # atom 2
      - [ -0.68932128093563, -0.01215851417173 ]
      - [  0.00000000000000,  0.00000000000000 ]
      - [  0.05646122235381,  0.14663039436867 ]
  - # 2
    frequency:    1.1821430373
    eigenvector:
    - # atom 1
      - [  0.05778260803103,  0.00000000000000 ]
      - [ -0.00000000000000,  0.00000000000000 ]
      - [  0.70441143504983, -0.02158009221889 ]
    - # atom 2
      - [  0.05194473653969, -0.14829054766984 ]
      - [ -0.00000000000000,  0.00000000000000 ]
      - [  0.68862572076618, -0.03326070529717 ]
  - # 3
    frequency:    2.7949337273
    eigenvector:
    - # atom 1
      - [  0.00000000000000,  0.00000000000000 ]
      - [  0.70675959564528,  0.02215567564563 ]
      - [  0.00000000000000,  0.00000000000000 ]
    - # atom 2
      - [  0.00000000000000, -0.00000000000000 ]
      - [  0.70675959564528,  0.02215567564563 ]
      - [  0.00000000000000,  0.00000000000000 ]
  - # 4
    frequency:   14.2423467647
    eigenvector:
    - # atom 1
      - [  0.00000000000000,  0.00000000000000 ]
      - [  0.00000000000002,  0.00000000000000 ]
      - [  0.67558670370525,  0.20876447441237 ]
    - # atom 2
      - [ -0.04394846066408,  0.14222245310913 ]
      - [ -0.00000000000002, -0.00000000000000 ]
      - [ -0.66044694567766, -0.20408610580324 ]
  - # 5
    frequency:   14.2423467647
    eigenvector:
    - # atom 1
      - [  0.70710678118655,  0.00000000000000 ]
      - [  0.00000000000000,  0.00000000000000 ]
      - [ -0.00000000000000, -0.00000000000000 ]
    - # atom 2
      - [ -0.69126066475453, -0.00000000000000 ]
      - [ -0.00000000000000, -0.00000000000000 ]
      - [  0.00000000000000,  0.14885796372086 ]
  - # 6
    frequency:   14.3088870527
    eigenvector:
    - # atom 1
      - [ -0.00000000000000,  0.00000000000000 ]
      - [  0.70309226179839,  0.07524142076827 ]
      - [ -0.00000000000002, -0.00000000000000 ]
    - # atom 2
      - [  0.00000000000000, -0.00000000000000 ]
      - [ -0.70309226179839, -0.07524142076827 ]
      - [  0.00000000000002,  0.00000000000000 ]

- q-position: [    0.1122449,    0.0000000,    0.1122449 ]
  distance:    0.0405612
  band:
  - # 1
    frequency:    1.2999195388
    eigenvector:
    - # atom 1
      - [ -0.70696520918075,  0.00000000000000 ]
      - [ -0.00000000000000,  0.00000000000000 ]
      - [ -0.00730507900617,  0.01211729461278 ]
    - # atom 2
      - [ -0.68483585304430,  0.00169595628540 ]
      - [ -0.00000000000000,  0.00000000000000 ]
      - [ -0.00710548461151,  0.17591614538127 ]
  - # 2
    frequency:    1.2999195388
    eigenvector:
    - # atom 1
      - [  0.01414895784217,  0.00000000000000 ]
      - [ -0.00000000000000, -0.00000000000000 ]
      - [ -0.36500474206567,  0.60545135664358 ]
    - # atom 2
      - [  0.15432471504631,  0.08473995777225 ]
      - [ -0.00000000000000, -0.00000000000000 ]
      - [ -0.35503183137175,  0.58562395835165 ]
  - # 3
    frequency:    3.0689595846
    eigenvector:
    - # atom 1
      - [  0.00000000000000,  0.00000000000000 ]
      - [ -0.70453979844375,  0.06019694683983 ]
      - [  0.00000000000000, -0.00000000000000 ]
    - # atom 2
      - [  0.00000000000000, -0.00000000000000 ]
      - [ -0.70453979844375,  0.06019694683983 ]
      - [  0.00000000000000, -0.00000000000000 ]
  - # 4
    frequency:   14.2089984719
    eigenvector:
    - # atom 1
      - [  0.70710678118655,  0.00000000000000 ]
      - [  0.00000000000000,  0.00000000000000 ]
      - [ -0.00000000000000, -0.00000000000000 ]
    - # atom 2
      - [ -0.68778672320613, -0.00000000000000 ]
      - [ -0.00000000000000, -0.00000000000000 ]
      - [  0.00000000000000,  0.16416279536292 ]
  - # 5
    frequency:   14.2089984719
    eigenvector:
    - # atom 1
      - [ -0.00000000000000,  0.00000000000000 ]
      - [  0.00000000000003,  0.00000000000000 ]
      - [ -0.58143353679879, -0.40241153348984 ]
    - # atom 2
      - [  0.09342436528910, -0.13498633764828 ]
      - [ -0.00000000000003, -0.00000000000000 ]
      - [  0.56554720966747,  0.39141656870395 ]
  - # 6
    frequency:   14.2882538404
    eigenvector:
    - # atom 1
      - [ -0.00000000000000,  0.00000000000000 ]
      - [  0.70596672533506,  0.04013704921508 ]
      - [  0.00000000000003,  0.00000000000002 ]
    - # atom 2
      - [ -0.00000000000000,  0.00000000000001 ]
      - [ -0.70596672533506, -0.04013704921508 ]
      - [ -0.00000000000003, -0.00000000000002 ]

- q-position: [    0.1224490,    0.0000000,    0.1224490 ]
  distance:    0.0442486
  band:
  - # 1
    frequency:    1.4175135551
    eigenvector:
    - # atom 1
      - [  0.05001446776179,  0.00000000000000 ]
      - [  0.00000000000000, -0.00000000000000 ]
      - [  0.27624603815502, -0.64898896710049 ]
    - # atom 2
      - [ -0.11644955376963, -0.07015838320911 ]
      - [  0.00000000000000, -0.00000000000000 ]
      - [  0.26718846319000, -0.64041207658078 ]
  - # 2
    frequency:    1.4175135551