   2    8
1 1
    11.709673408235801    -0.000000000000001     0.000000000000000
     0.000000000000000    11.709673408235801     0.000000000000001
     0.000000000000000    -0.000000000000000    11.709673408235801
1 2
     1.674614658330380    -0.000000000000000    -0.000000000000000
     0.000000000000000    -0.730874584294008    -0.000000000000000
    -0.000000000000000     0.000000000000000    -0.730874584294008
1 3
    -0.730874584294008    -0.000000000000000     0.000000000000000
    -0.000000000000000     1.674614658330380     0.000000000000000
    -0.000000000000000    -0.000000000000000    -0.730874584294008
1 4
    -0.730874584294008     0.000000000000000     0.000000000000000
     0.000000000000000    -0.730874584294008     0.000000000000000
     0.000000000000000     0.000000000000000     1.674614658330380
1 5
    -2.980634724494535    -1.933174151489740    -1.933174151489740
    -1.933174151489740    -2.980634724494535    -1.933174151489740
    -1.933174151489740    -1.933174151489740    -2.980634724494535
1 6
    -2.980634724494535     1.933174151489740     1.933174151489741
     1.933174151489740    -2.980634724494534    -1.933174151489740
     1.933174151489740    -1.933174151489740    -2.980634724494534
1 7
    -2.980634724494535     1.933174151489740    -1.933174151489740
     1.933174151489740    -2.980634724494534     1.933174151489740
    -1.933174151489740     1.933174151489740    -2.980634724494534
1 8
    -2.980634724494535    -1.933174151489741     1.933174151489740
    -1.933174151489740    -2.980634724494534     1.933174151489740
     1.933174151489740     1.933174151489740    -2.980634724494535
5 1
    -2.980634724494534    -1.933174151489740    -1.933174151489740
    -1.933174151489741    -2.980634724494535    -1.933174151489740
    -1.933174151489740    -1.933174151489739    -2.980634724494534
5 2
    -2.980634724494535     1.933174151489739     1.933174151489740
     1.933174151489740    -2.980634724494535    -1.933174151489740
     1.933174151489740    -1.933174151489740    -2.980634724494535
5 3
    -2.980634724494534     1.933174151489740    -1.933174151489740
     1.933174151489740    -2.980634724494535     1.933174151489740
    -1.933174151489740     1.933174151489740    -2.980634724494535
5 4
    -2.980634724494534    -1.933174151489740     1.933174151489740
    -1.933174151489741    -2.980634724494535     1.933174151489741
     1.933174151489741     1.933174151489740    -2.980634724494534
5 5
    11.709673408235801     0.000000000000001    -0.000000000000001
     0.000000000000002    11.709673408235801    -0.000000000000001
    -0.000000000000001    -0.000000000000001    11.709673408235801
5 6
     1.674614658330380     0.000000000000000    -0.000000000000000
     0.000000000000000    -0.730874584294008     0.000000000000000
    -0.000000000000000     0.000000000000000    -0.730874584294008
5 7
    -0.730874584294008    -0.000000000000000     0.000000000000000
     0.000000000000000     1.674614658330380    -0.000000000000000
     0.000000000000000    -0.000000000000000    -0.730874584294008
5 8
    -0.730874584294008    -0.000000000000000     0.000000000000000
    -0.000000000000000    -0.730874584294008    -0.000000000000000
    -0.000000000000000    -0.000000000000000     1.674614658330380