8    
1    

1    
  0.0100000000000000  -0.0000000000000000  -0.0000000000000000
  -0.1170967341    0.0000000006   -0.0000000125
  -0.0167461466    0.0000000034   -0.0000000040
   0.0073087426    0.0000000045    0.0000000002
   0.0073087491    0.0000000004   -0.0000000007
   0.0299573447    0.0195891400    0.0195891449
   0.0299573464   -0.0195891343   -0.0195891316
   0.0296553515   -0.0190743508    0.0190743490
   0.0296553464    0.0190743361   -0.0190743453
