8    
1    

1    
  0.0100000000000000  -0.0000000000000000  -0.0000000000000000
  -0.1170967335    0.0000000024    0.0000000024
  -0.0167462186    0.0000000026   -0.0000000094
   0.0073088279   -0.0000000001   -0.0000000022
   0.0073087429   -0.0000000024   -0.0000000009
   0.0299573472    0.0195891401    0.0195891412
   0.0299573372   -0.0195891403   -0.0195891383
   0.0296553529   -0.0190743429    0.0190743492
   0.0296553440    0.0190743406   -0.0190743420
