   2    8
1 1
    11.709673353028702    -0.000000000000001    -0.000000000000000
    -0.000000000000000    11.709673353028700     0.000000000000001
     0.000000000000000     0.000000000000000    11.709673353028700
1 2
     1.674621858375090    -0.000000000000000    -0.000000000000000
     0.000000000000000    -0.730878541184014    -0.000000000000000
    -0.000000000000000    -0.000000000000000    -0.730878541184014
1 3
    -0.730878541184014    -0.000000000000000    -0.000000000000000
    -0.000000000000000     1.674621858375090     0.000000000000000
    -0.000000000000000    -0.000000000000000    -0.730878541184014
1 4
    -0.730878541184014     0.000000000000000     0.000000000000000
    -0.000000000000000    -0.730878541184014     0.000000000000000
     0.000000000000000     0.000000000000000     1.674621858375090
1 5
    -2.980634532258950    -1.933174181670209    -1.933174181670209
    -1.933174181670209    -2.980634532258950    -1.933174181670209
    -1.933174181670209    -1.933174181670209    -2.980634532258950
1 6
    -2.980634532258950     1.933174181670209     1.933174181670209
     1.933174181670209    -2.980634532258950    -1.933174181670209
     1.933174181670209    -1.933174181670209    -2.980634532258950
1 7
    -2.980634532258951     1.933174181670209    -1.933174181670209
     1.933174181670209    -2.980634532258950     1.933174181670209
    -1.933174181670209     1.933174181670209    -2.980634532258950
1 8
    -2.980634532258950    -1.933174181670209     1.933174181670209
    -1.933174181670209    -2.980634532258950     1.933174181670209
     1.933174181670209     1.933174181670209    -2.980634532258950
5 1
    -2.980634532258950    -1.933174181670209    -1.933174181670209
    -1.933174181670209    -2.980634532258951    -1.933174181670209
    -1.933174181670209    -1.933174181670209    -2.980634532258950
5 2
    -2.980634532258950     1.933174181670208     1.933174181670209
     1.933174181670209    -2.980634532258950    -1.933174181670209
     1.933174181670209    -1.933174181670208    -2.980634532258950
5 3
    -2.980634532258950     1.933174181670208    -1.933174181670209
     1.933174181670208    -2.980634532258950     1.933174181670209
    -1.933174181670208     1.933174181670209    -2.980634532258950
5 4
    -2.980634532258950    -1.933174181670209     1.933174181670209
    -1.933174181670210    -2.980634532258950     1.933174181670209
     1.933174181670209     1.933174181670209    -2.980634532258950
5 5
    11.709673353028700     0.000000000000001    -0.000000000000001
     0.000000000000002    11.709673353028702    -0.000000000000001
    -0.000000000000001    -0.000000000000001    11.709673353028700
5 6
     1.674621858375090     0.000000000000000    -0.000000000000000
     0.000000000000000    -0.730878541184014     0.000000000000000
    -0.000000000000000     0.000000000000000    -0.730878541184014
5 7
    -0.730878541184014    -0.000000000000000     0.000000000000000
     0.000000000000000     1.674621858375090    -0.000000000000000
     0.000000000000000    -0.000000000000000    -0.730878541184014
5 8
    -0.730878541184014    -0.000000000000000     0.000000000000000
    -0.000000000000000    -0.730878541184014    -0.000000000000000
    -0.000000000000000    -0.000000000000000     1.674621858375090