phonopy:
  version: "2.38.2"
  frequency_unit_conversion_factor: 15.633304
  symmetry_tolerance: 1.00000e-05

magnetic_space_group:
  uni_number: 1631
  msg_type: 2

supercell_matrix:
- [  -1,   1,   1 ]
- [   1,  -1,   1 ]
- [   1,   1,  -1 ]

primitive_cell:
  lattice:
  - [     0.000000000000000,     2.767294438168200,     2.767294438168200 ] # a
  - [     2.767294438168200,     0.000000000000000,     2.767294438168200 ] # b
  - [     2.767294438168200,     2.767294438168200,     0.000000000000000 ] # c
  points:
  - symbol: Si # 1
    coordinates: [  0.000000000000000,  0.000000000000000,  0.000000000000000 ]
    mass: 28.085000
    magnetic_moment: 0.00000000
  - symbol: Si # 2
    coordinates: [  0.250000000000000,  0.250000000000000,  0.250000000000000 ]
    mass: 28.085000
    magnetic_moment: 0.00000000
  reciprocal_lattice: # without 2pi
  - [    -0.180681893875728,     0.180681893875728,     0.180681893875728 ] # a*
  - [     0.180681893875728,    -0.180681893875728,     0.180681893875728 ] # b*
  - [     0.180681893875728,     0.180681893875728,    -0.180681893875728 ] # c*

unit_cell:
  lattice:
  - [     0.000000000000000,     2.767294438168200,     2.767294438168200 ] # a
  - [     2.767294438168200,     0.000000000000000,     2.767294438168200 ] # b
  - [     2.767294438168200,     2.767294438168200,     0.000000000000000 ] # c
  points:
  - symbol: Si # 1
    coordinates: [  0.000000000000000,  0.000000000000000,  0.000000000000000 ]
    mass: 28.085000
    reduced_to: 1
    magnetic_moment: 0.00000000
  - symbol: Si # 2
    coordinates: [  0.250000000000000,  0.250000000000000,  0.250000000000000 ]
    mass: 28.085000
    reduced_to: 2
    magnetic_moment: 0.00000000

supercell:
  lattice:
  - [     5.534588876336400,    -0.000000000000000,    -0.000000000000000 ] # a
  - [    -0.000000000000000,     5.534588876336400,     0.000000000000000 ] # b
  - [     0.000000000000000,     0.000000000000000,     5.534588876336400 ] # c
  points:
  - symbol: Si # 1
    coordinates: [  0.000000000000000,  0.000000000000000,  0.000000000000000 ]
    mass: 28.085000
    reduced_to: 1
    magnetic_moment: 0.00000000
  - symbol: Si # 2
    coordinates: [  1.000000000000000,  0.500000000000000,  0.500000000000000 ]
    mass: 28.085000
    reduced_to: 1
    magnetic_moment: 0.00000000
  - symbol: Si # 3
    coordinates: [  0.500000000000000,  0.000000000000000,  0.500000000000000 ]
    mass: 28.085000
    reduced_to: 1
    magnetic_moment: 0.00000000
  - symbol: Si # 4
    coordinates: [  0.500000000000000,  0.500000000000000,  0.000000000000000 ]
    mass: 28.085000
    reduced_to: 1
    magnetic_moment: 0.00000000
  - symbol: Si # 5
    coordinates: [  0.250000000000000,  0.250000000000000,  0.250000000000000 ]
    mass: 28.085000
    reduced_to: 5
    magnetic_moment: 0.00000000
  - symbol: Si # 6
    coordinates: [  0.250000000000000,  0.750000000000000,  0.750000000000000 ]
    mass: 28.085000
    reduced_to: 5
    magnetic_moment: 0.00000000
  - symbol: Si # 7
    coordinates: [  0.750000000000000,  0.250000000000000,  0.750000000000000 ]
    mass: 28.085000
    reduced_to: 5
    magnetic_moment: 0.00000000
  - symbol: Si # 8
    coordinates: [  0.750000000000000,  0.750000000000000,  0.250000000000000 ]
    mass: 28.085000
    reduced_to: 5
    magnetic_moment: 0.00000000

displacements:
- atom:    1
  displacement:
    [   0.0100000000000000, -0.0000000000000000, -0.0000000000000000 ]
  forces:
  - [  -0.1170967335302870,  0.0000000023655369,  0.0000000023929190 ]
  - [  -0.0167462185837509,  0.0000000025844886, -0.0000000093604334 ]
  - [   0.0073088278836899, -0.0000000000767269, -0.0000000022086312 ]
  - [   0.0073087429399904, -0.0000000024177954, -0.0000000009175076 ]
  - [   0.0299573471932575,  0.0195891400624264,  0.0195891412386441 ]
  - [   0.0299573371648933, -0.0195891402591673, -0.0195891382724760 ]
  - [   0.0296553529268306, -0.0190743428873410,  0.0190743491562342 ]
  - [   0.0296553440053766,  0.0190743406285786, -0.0190743420287491 ]
