phonopy:
  version: "2.38.2"
  frequency_unit_conversion_factor: 15.633304
  symmetry_tolerance: 1.00000e-05

magnetic_space_group:
  uni_number: 1631
  msg_type: 2

supercell_matrix:
- [  -1,   1,   1 ]
- [   1,  -1,   1 ]
- [   1,   1,  -1 ]

primitive_cell:
  lattice:
  - [     0.000000000000000,     2.767294438168200,     2.767294438168200 ] # a
  - [     2.767294438168200,     0.000000000000000,     2.767294438168200 ] # b
  - [     2.767294438168200,     2.767294438168200,     0.000000000000000 ] # c
  points:
  - symbol: Si # 1
    coordinates: [  0.000000000000000,  0.000000000000000,  0.000000000000000 ]
    mass: 28.085000
    magnetic_moment: 0.00000000
  - symbol: Si # 2
    coordinates: [  0.250000000000000,  0.250000000000000,  0.250000000000000 ]
    mass: 28.085000
    magnetic_moment: 0.00000000
  reciprocal_lattice: # without 2pi
  - [    -0.180681893875728,     0.180681893875728,     0.180681893875728 ] # a*
  - [     0.180681893875728,    -0.180681893875728,     0.180681893875728 ] # b*
  - [     0.180681893875728,     0.180681893875728,    -0.180681893875728 ] # c*

unit_cell:
  lattice:
  - [     0.000000000000000,     2.767294438168200,     2.767294438168200 ] # a
  - [     2.767294438168200,     0.000000000000000,     2.767294438168200 ] # b
  - [     2.767294438168200,     2.767294438168200,     0.000000000000000 ] # c
  points:
  - symbol: Si # 1
    coordinates: [  0.000000000000000,  0.000000000000000,  0.000000000000000 ]
    mass: 28.085000
    reduced_to: 1
    magnetic_moment: 0.00000000
  - symbol: Si # 2
    coordinates: [  0.250000000000000,  0.250000000000000,  0.250000000000000 ]
    mass: 28.085000
    reduced_to: 2
    magnetic_moment: 0.00000000

supercell:
  lattice:
  - [     5.534588876336400,    -0.000000000000000,    -0.000000000000000 ] # a
  - [    -0.000000000000000,     5.534588876336400,     0.000000000000000 ] # b
  - [     0.000000000000000,     0.000000000000000,     5.534588876336400 ] # c
  points:
  - symbol: Si # 1
    coordinates: [  0.000000000000000,  0.000000000000000,  0.000000000000000 ]
    mass: 28.085000
    reduced_to: 1
    magnetic_moment: 0.00000000
  - symbol: Si # 2
    coordinates: [  0.000000000000000,  0.500000000000000,  0.500000000000000 ]
    mass: 28.085000
    reduced_to: 1
    magnetic_moment: 0.00000000
  - symbol: Si # 3
    coordinates: [  0.500000000000000,  0.000000000000000,  0.500000000000000 ]
    mass: 28.085000
    reduced_to: 1
    magnetic_moment: 0.00000000
  - symbol: Si # 4
    coordinates: [  0.500000000000000,  0.500000000000000,  0.000000000000000 ]
    mass: 28.085000
    reduced_to: 1
    magnetic_moment: 0.00000000
  - symbol: Si # 5
    coordinates: [  0.250000000000000,  0.250000000000000,  0.250000000000000 ]
    mass: 28.085000
    reduced_to: 5
    magnetic_moment: 0.00000000
  - symbol: Si # 6
    coordinates: [  0.250000000000000,  0.750000000000000,  0.750000000000000 ]
    mass: 28.085000
    reduced_to: 5
    magnetic_moment: 0.00000000
  - symbol: Si # 7
    coordinates: [  0.750000000000000,  0.250000000000000,  0.750000000000000 ]
    mass: 28.085000
    reduced_to: 5
    magnetic_moment: 0.00000000
  - symbol: Si # 8
    coordinates: [  0.750000000000000,  0.750000000000000,  0.250000000000000 ]
    mass: 28.085000
    reduced_to: 5
    magnetic_moment: 0.00000000

displacements:
- atom:    1
  displacement:
    [   0.0100000000000000, -0.0000000000000000, -0.0000000000000000 ]
  forces:
  - [  -0.1170967340823580,  0.0000000006030801, -0.0000000125249680 ]
  - [  -0.0167461465833038,  0.0000000034078239, -0.0000000040316341 ]
  - [   0.0073087426156172,  0.0000000045457900,  0.0000000002456953 ]
  - [   0.0073087490702629,  0.0000000003759040, -0.0000000006823916 ]
  - [   0.0299573446772962,  0.0195891399721250,  0.0195891449264409 ]
  - [   0.0299573463949146, -0.0195891342592237, -0.0195891316329863 ]
  - [   0.0296553514888170, -0.0190743507908392,  0.0190743490460340 ]
  - [   0.0296553464187536,  0.0190743361453399, -0.0190743453461902 ]
