# Thermal properties / unit cell (natom)

unit:
  temperature:   K
  free_energy:   kJ/mol
  entropy:       J/K/mol
  heat_capacity: J/K/mol

natom: 2    
cutoff_frequency: 0.00000
num_modes: 546750
num_integrated_modes: 546747

zero_point_energy:      11.0582864

thermal_properties:
- temperature:         0.0000000
  free_energy:        11.0582864
  entropy:             0.0000000
  heat_capacity:       0.0000000
  energy:             11.0582864

- temperature:        10.0000000
  free_energy:        11.0582480
  entropy:             0.0159520
  heat_capacity:       0.0490664
  energy:             11.0584076

- temperature:        20.0000000
  free_energy:        11.0576280
  entropy:             0.1352840
  heat_capacity:       0.4277613
  energy:             11.0603336

- temperature:        30.0000000
  free_energy:        11.0547336
  entropy:             0.4962740
  heat_capacity:       1.5821190
  energy:             11.0696218

- temperature:        40.0000000
  free_energy:        11.0465397
  entropy:             1.2007177
  heat_capacity:       3.4988758
  energy:             11.0945684

- temperature:        50.0000000
  free_energy:        11.0296647
  entropy:             2.2198725
  heat_capacity:       5.7409923
  energy:             11.1406583

- temperature:        60.0000000
  free_energy:        11.0013805
  entropy:             3.4681492
  heat_capacity:       8.0148553
  energy:             11.2094695

- temperature:        70.0000000
  free_energy:        10.9597891
  entropy:             4.8711133
  heat_capacity:      10.2349530
  energy:             11.3007671

- temperature:        80.0000000
  free_energy:        10.9036074
  entropy:             6.3799572
  heat_capacity:      12.4058453
  energy:             11.4140040

- temperature:        90.0000000
  free_energy:        10.8319376
  entropy:             7.9648560
  heat_capacity:      14.5433671
  energy:             11.5487746

- temperature:       100.0000000
  free_energy:        10.7441218
  entropy:             9.6064526
  heat_capacity:      16.6491357
  energy:             11.7047671

- temperature:       110.0000000
  free_energy:        10.6396676
  entropy:            11.2904021
  heat_capacity:      18.7110471
  energy:             11.8816118

- temperature:       120.0000000
  free_energy:        10.5182127
  entropy:            13.0047302
  heat_capacity:      20.7106520
  energy:             12.0787803

- temperature:       130.0000000
  free_energy:        10.3795072
  entropy:            14.7388319
  heat_capacity:      22.6295319
  energy:             12.2955553

- temperature:       140.0000000
  free_energy:        10.2234019
  entropy:            16.4832150
  heat_capacity:      24.4528933
  energy:             12.5310520

- temperature:       150.0000000
  free_energy:        10.0498367
  entropy:            18.2294976
  heat_capacity:      26.1708527
  energy:             12.7842613

- temperature:       160.0000000
  free_energy:         9.8588298
  entropy:            19.9704402
  heat_capacity:      27.7783236
  energy:             13.0541003

- temperature:       170.0000000
  free_energy:         9.6504662
  entropy:            21.6999382
  heat_capacity:      29.2742494
  energy:             13.3394556

- temperature:       180.0000000
  free_energy:         9.4248861
  entropy:            23.4129656
  heat_capacity:      30.6606407
  energy:             13.6392199

- temperature:       190.0000000
  free_energy:         9.1822753
  entropy:            25.1054829
  heat_capacity:      31.9416592
  energy:             13.9523171

- temperature:       200.0000000
  free_energy:         8.9228554
  entropy:            26.7743240
  heat_capacity:      33.1228483
  energy:             14.2777202

- temperature:       210.0000000
  free_energy:         8.6468759
  entropy:            28.4170784
  heat_capacity:      34.2105340
  energy:             14.6144623

- temperature:       220.0000000
  free_energy:         8.3546068
  entropy:            30.0319758
  heat_capacity:      35.2113837
  energy:             14.9616415

- temperature:       230.0000000
  free_energy:         8.0463334
  entropy:            31.6177805
  heat_capacity:      36.1320960
  energy:             15.3184229

- temperature:       240.0000000
  free_energy:         7.7223508
  entropy:            33.1736966
  heat_capacity:      36.9791931
  energy:             15.6840380

- temperature:       250.0000000
  free_energy:         7.3829606
  entropy:            34.6992863
  heat_capacity:      37.7588895
  energy:             16.0577821

- temperature:       260.0000000
  free_energy:         7.0284667
  entropy:            36.1943997
  heat_capacity:      38.4770167
  energy:             16.4390106

- temperature:       270.0000000
  free_energy:         6.6591739
  entropy:            37.6591163
  heat_capacity:      39.1389861
  energy:             16.8271353

- temperature:       280.0000000
  free_energy:         6.2753849
  entropy:            39.0936962
  heat_capacity:      39.7497788
  energy:             17.2216198

- temperature:       290.0000000
  free_energy:         5.8773991
  entropy:            40.4985394
  heat_capacity:      40.3139529
  energy:             17.6219755

- temperature:       300.0000000
  free_energy:         5.4655115
  entropy:            41.8741528
  heat_capacity:      40.8356611
  energy:             18.0277574

- temperature:       310.0000000
  free_energy:         5.0400115
  entropy:            43.2211235
  heat_capacity:      41.3186752
  energy:             18.4385598

- temperature:       320.0000000
  free_energy:         4.6011824
  entropy:            44.5400967
  heat_capacity:      41.7664137
  energy:             18.8540133

- temperature:       330.0000000
  free_energy:         4.1493006
  entropy:            45.8317582
  heat_capacity:      42.1819706
  energy:             19.2737809

- temperature:       340.0000000
  free_energy:         3.6846359
  entropy:            47.0968204
  heat_capacity:      42.5681435
  energy:             19.6975548

- temperature:       350.0000000
  free_energy:         3.2074505
  entropy:            48.3360107
  heat_capacity:      42.9274612
  energy:             20.1250542

- temperature:       360.0000000
  free_energy:         2.7179995
  entropy:            49.5500631
  heat_capacity:      43.2622094
  energy:             20.5560222

- temperature:       370.0000000
  free_energy:         2.2165306
  entropy:            50.7397105
  heat_capacity:      43.5744542
  energy:             20.9902234

- temperature:       380.0000000
  free_energy:         1.7032842
  entropy:            51.9056798
  heat_capacity:      43.8660644
  energy:             21.4274425

- temperature:       390.0000000
  free_energy:         1.1784935
  entropy:            53.0486874
  heat_capacity:      44.1387315
  energy:             21.8674816

- temperature:       400.0000000
  free_energy:         0.6423846
  entropy:            54.1694362
  heat_capacity:      44.3939871
  energy:             22.3101591

- temperature:       410.0000000
  free_energy:         0.0951767
  entropy:            55.2686128
  heat_capacity:      44.6332198
  energy:             22.7553079

- temperature:       420.0000000
  free_energy:        -0.4629180
  entropy:            56.3468863
  heat_capacity:      44.8576895
  energy:             23.2027743

- temperature:       430.0000000
  free_energy:        -1.0316935
  entropy:            57.4049067
  heat_capacity:      45.0685406
  energy:             23.6524163

- temperature:       440.0000000
  free_energy:        -1.6109507
  entropy:            58.4433043
  heat_capacity:      45.2668134
  energy:             24.1041032

- temperature:       450.0000000
  free_energy:        -2.2004962
  entropy:            59.4626891
  heat_capacity:      45.4534551
  energy:             24.5577139

- temperature:       460.0000000
  free_energy:        -2.8001431
  entropy:            60.4636510
  heat_capacity:      45.6293289
  energy:             25.0131364

- temperature:       470.0000000
  free_energy:        -3.4097097
  entropy:            61.4467594
  heat_capacity:      45.7952220
  energy:             25.4702672

- temperature:       480.0000000
  free_energy:        -4.0290206
  entropy:            62.4125636
  heat_capacity:      45.9518539
  energy:             25.9290100

- temperature:       490.0000000
  free_energy:        -4.6579051
  entropy:            63.3615932
  heat_capacity:      46.0998820
  energy:             26.3892756

- temperature:       500.0000000
  free_energy:        -5.2961982
  entropy:            64.2943584
  heat_capacity:      46.2399088
  energy:             26.8509810

- temperature:       510.0000000
  free_energy:        -5.9437397
  entropy:            65.2113502
  heat_capacity:      46.3724859
  energy:             27.3140489

- temperature:       520.0000000
  free_energy:        -6.6003742
  entropy:            66.1130418
  heat_capacity:      46.4981200
  energy:             27.7784075

- temperature:       530.0000000
  free_energy:        -7.2659511
  entropy:            66.9998883
  heat_capacity:      46.6172764
  energy:             28.2439897

- temperature:       540.0000000
  free_energy:        -7.9403240
  entropy:            67.8723275
  heat_capacity:      46.7303829
  energy:             28.7107329

- temperature:       550.0000000
  free_energy:        -8.6233510
  entropy:            68.7307810
  heat_capacity:      46.8378336
  energy:             29.1785785

- temperature:       560.0000000
  free_energy:        -9.3148943
  entropy:            69.5756540
  heat_capacity:      46.9399918
  energy:             29.6474719

- temperature:       570.0000000
  free_energy:       -10.0148201
  entropy:            70.4073368
  heat_capacity:      47.0371925
  energy:             30.1173619

- temperature:       580.0000000
  free_energy:       -10.7229983
  entropy:            71.2262045
  heat_capacity:      47.1297454
  energy:             30.5882003

- temperature:       590.0000000
  free_energy:       -11.4393027
  entropy:            72.0326185
  heat_capacity:      47.2179368
  energy:             31.0599422

- temperature:       600.0000000
  free_energy:       -12.1636104
  entropy:            72.8269262
  heat_capacity:      47.3020317
  energy:             31.5325454

- temperature:       610.0000000
  free_energy:       -12.8958020
  entropy:            73.6094623
  heat_capacity:      47.3822757
  energy:             32.0059700

- temperature:       620.0000000
  free_energy:       -13.6357614
  entropy:            74.3805488
  heat_capacity:      47.4588965
  energy:             32.4801788

- temperature:       630.0000000
  free_energy:       -14.3833758
  entropy:            75.1404959
  heat_capacity:      47.5321056
  energy:             32.9551366

- temperature:       640.0000000
  free_energy:       -15.1385352
  entropy:            75.8896022
  heat_capacity:      47.6020994
  energy:             33.4308102

- temperature:       650.0000000
  free_energy:       -15.9011327
  entropy:            76.6281556
  heat_capacity:      47.6690609
  energy:             33.9071685

- temperature:       660.0000000
  free_energy:       -16.6710641
  entropy:            77.3564333
  heat_capacity:      47.7331601
  energy:             34.3841819

- temperature:       670.0000000
  free_energy:       -17.4482280
  entropy:            78.0747025
  heat_capacity:      47.7945557
  energy:             34.8618227

- temperature:       680.0000000
  free_energy:       -18.2325256
  entropy:            78.7832208
  heat_capacity:      47.8533956
  energy:             35.3400645

- temperature:       690.0000000
  free_energy:       -19.0238607
  entropy:            79.4822366
  heat_capacity:      47.9098179
  energy:             35.8188825

- temperature:       700.0000000
  free_energy:       -19.8221395
  entropy:            80.1719896
  heat_capacity:      47.9639515
  energy:             36.2982532

- temperature:       710.0000000
  free_energy:       -20.6272704
  entropy:            80.8527109
  heat_capacity:      48.0159171
  energy:             36.7781543

- temperature:       720.0000000
  free_energy:       -21.4391643
  entropy:            81.5246237
  heat_capacity:      48.0658275
  energy:             37.2585647

- temperature:       730.0000000
  free_energy:       -22.2577343
  entropy:            82.1879433
  heat_capacity:      48.1137886
  energy:             37.7394644

- temperature:       740.0000000
  free_energy:       -23.0828953
  entropy:            82.8428778
  heat_capacity:      48.1598993
  energy:             38.2208343

- temperature:       750.0000000
  free_energy:       -23.9145645
  entropy:            83.4896280
  heat_capacity:      48.2042526
  energy:             38.7026565

- temperature:       760.0000000
  free_energy:       -24.7526612
  entropy:            84.1283881
  heat_capacity:      48.2469358
  energy:             39.1849138

- temperature:       770.0000000
  free_energy:       -25.5971063
  entropy:            84.7593457
  heat_capacity:      48.2880308
  energy:             39.6675899

- temperature:       780.0000000
  free_energy:       -26.4478227
  entropy:            85.3826822
  heat_capacity:      48.3276147
  energy:             40.1506694

- temperature:       790.0000000
  free_energy:       -27.3047351
  entropy:            85.9985728
  heat_capacity:      48.3657599
  energy:             40.6341374

- temperature:       800.0000000
  free_energy:       -28.1677699
  entropy:            86.6071874
  heat_capacity:      48.4025346
  energy:             41.1179800

- temperature:       810.0000000
  free_energy:       -29.0368551
  entropy:            87.2086900
  heat_capacity:      48.4380032
  energy:             41.6021838

- temperature:       820.0000000
  free_energy:       -29.9119205
  entropy:            87.8032396
  heat_capacity:      48.4722262
  energy:             42.0867359

- temperature:       830.0000000
  free_energy:       -30.7928973
  entropy:            88.3909899
  heat_capacity:      48.5052608
  energy:             42.5716243

- temperature:       840.0000000
  free_energy:       -31.6797182
  entropy:            88.9720899
  heat_capacity:      48.5371608
  energy:             43.0568374

- temperature:       850.0000000
  free_energy:       -32.5723174
  entropy:            89.5466839
  heat_capacity:      48.5679773
  energy:             43.5423639

- temperature:       860.0000000
  free_energy:       -33.4706306
  entropy:            90.1149117
  heat_capacity:      48.5977582
  energy:             44.0281935

- temperature:       870.0000000
  free_energy:       -34.3745949
  entropy:            90.6769088
  heat_capacity:      48.6265493
  energy:             44.5143158

- temperature:       880.0000000
  free_energy:       -35.2841485
  entropy:            91.2328065
  heat_capacity:      48.6543934
  energy:             45.0007213

- temperature:       890.0000000
  free_energy:       -36.1992311
  entropy:            91.7827323
  heat_capacity:      48.6813314
  energy:             45.4874006

- temperature:       900.0000000
  free_energy:       -37.1197836
  entropy:            92.3268096
  heat_capacity:      48.7074019
  energy:             45.9743450

- temperature:       910.0000000
  free_energy:       -38.0457482
  entropy:            92.8651583
  heat_capacity:      48.7326414
  energy:             46.4615459

- temperature:       920.0000000
  free_energy:       -38.9770681
  entropy:            93.3978949
  heat_capacity:      48.7570847
  energy:             46.9489952

- temperature:       930.0000000
  free_energy:       -39.9136877
  entropy:            93.9251320
  heat_capacity:      48.7807646
  energy:             47.4366851

- temperature:       940.0000000
  free_energy:       -40.8555527
  entropy:            94.4469796
  heat_capacity:      48.8037125
  energy:             47.9246080

- temperature:       950.0000000
  free_energy:       -41.8026097
  entropy:            94.9635439
  heat_capacity:      48.8259579
  energy:             48.4127570

- temperature:       960.0000000
  free_energy:       -42.7548064
  entropy:            95.4749285
  heat_capacity:      48.8475291
  energy:             48.9011250

- temperature:       970.0000000
  free_energy:       -43.7120914
  entropy:            95.9812338
  heat_capacity:      48.8684529
  energy:             49.3897054

- temperature:       980.0000000
  free_energy:       -44.6744144
  entropy:            96.4825575
  heat_capacity:      48.8887547
  energy:             49.8784919

- temperature:       990.0000000
  free_energy:       -45.6417262
  entropy:            96.9789947
  heat_capacity:      48.9084589
  energy:             50.3674785

- temperature:      1000.0000000
  free_energy:       -46.6139783
  entropy:            97.4706375
  heat_capacity:      48.9275885
  energy:             50.8566592
